<?xml version="1.0"?><VTKFile type="PolyData" version="0.1" byte_order="LittleEndian">
<PolyData>
<Piece NumberOfLines="1863" NumberOfPoints="1864">
<CellData Scalars=" CellData">
<DataArray type="Float32" Name="radius" NumberOfComponents="1" format="ascii" >
0.15 0.15 0.15 0.15 0.15 0.15 0.15 0.15 0.15 0.15 0.15 0.15 0.075 0.075 0.075 0.075 0.075 0.075 0.075 0.075 0.075 0.075 0.075 0.075 0.075 0.075 0.075 0.075 0.075 0.075 0.075 0.075 0.075 0.075 0.075 0.075 0.075 0.075 0.075 0.075 0.075 0.075 0.075 0.075 0.075 0.075 0.075 0.075 0.075 0.075 0.075 0.075 0.075 0.075 0.075 0.075 0.075 0.075 0.075 0.075 0.075 0.075 0.075 0.075 0.075 0.075 0.075 0.075 0.075 0.075 0.075 0.075 0.075 0.075 0.075 0.075 0.075 0.075 0.075 0.075 0.075 0.075 0.075 0.075 0.075 0.075 0.075 0.075 0.075 0.075 0.075 0.075 0.075 0.075 0.075 0.075 0.075 0.075 0.075 0.075 0.075 0.075 0.075 0.075 0.075 0.075 0.075 0.075 0.075 0.075 0.075 0.075 0.075 0.075 0.075 0.075 0.075 0.075 0.075 0.075 0.075 0.075 0.075 0.075 0.075 0.075 0.075 0.075 0.075 0.075 0.075 0.075 0.075 0.075 0.075 0.075 0.075 0.075 0.075 0.075 0.075 0.075 0.075 0.075 0.075 0.075 0.075 0.075 0.075 0.075 0.075 0.075 0.075 0.075 0.075 0.075 0.075 0.075 0.075 0.075 0.075 0.075 0.075 0.075 0.075 0.075 0.075 0.075 0.075 0.075 0.075 0.075 0.075 0.075 0.075 0.075 0.075 0.075 0.075 0.075 0.075 0.075 0.075 0.075 0.075 0.075 0.075 0.075 0.075 0.075 0.075 0.075 0.075 0.075 0.075 0.075 0.075 0.075 0.075 0.075 0.075 0.075 0.075 0.075 0.075 0.075 0.075 0.075 0.075 0.075 0.075 0.075 0.075 0.075 0.075 0.075 0.075 0.075 0.075 0.075 0.075 0.075 0.075 0.075 0.075 0.075 0.075 0.075 0.075 0.075 0.075 0.075 0.075 0.03 0.03 0.03 0.03 0.03 0.03 0.03 0.03 0.03 0.03 0.03 0.03 0.03 0.03 0.03 0.03 0.03 0.02 0.02 0.02 0.02 0.02 0.02 0.02 0.02 0.02 0.03 0.03 0.03 0.03 0.03 0.03 0.03 0.03 0.03 0.03 0.03 0.03 0.03 0.03 0.03 0.03 0.03 0.03 0.03 0.03 0.03 0.03 0.03 0.03 0.03 0.03 0.03 0.03 0.03 0.03 0.03 0.03 0.03 0.03 0.03 0.03 0.03 0.03 0.03 0.03 0.03 0.03 0.03 0.03 0.03 0.03 0.03 0.02 0.02 0.02 0.03 0.03 0.03 0.03 0.03 0.03 0.02 0.02 0.02 0.03 0.03 0.03 0.03 0.03 0.03 0.03 0.03 0.03 0.03 0.03 0.03 0.03 0.03 0.03 0.02 0.02 0.02 0.02 0.02 0.02 0.03 0.03 0.03 0.03 0.02 0.02 0.03 0.03 0.03 0.03 0.03 0.03 0.03 0.03 0.03 0.02 0.02 0.02 0.02 0.03 0.03 0.075 0.075 0.075 0.075 0.075 0.075 0.075 0.075 0.075 0.075 0.075 0.075 0.075 0.075 0.075 0.075 0.075 0.075 0.075 0.075 0.075 0.075 0.075 0.075 0.075 0.075 0.075 0.075 0.075 0.075 0.075 0.075 0.075 0.075 0.075 0.075 0.075 0.075 0.075 0.075 0.075 0.075 0.075 0.075 0.075 0.075 0.075 0.075 0.075 0.075 0.075 0.075 0.075 0.075 0.075 0.075 0.075 0.075 0.075 0.075 0.075 0.075 0.075 0.075 0.075 0.075 0.075 0.075 0.075 0.075 0.075 0.075 0.075 0.075 0.075 0.075 0.075 0.075 0.075 0.075 0.075 0.075 0.075 0.075 0.075 0.075 0.075 0.075 0.075 0.075 0.075 0.075 0.075 0.075 0.075 0.075 0.075 0.075 0.075 0.075 0.075 0.075 0.075 0.075 0.075 0.075 0.075 0.075 0.075 0.075 0.075 0.075 0.075 0.075 0.075 0.075 0.075 0.075 0.075 0.075 0.075 0.075 0.075 0.075 0.075 0.075 0.075 0.075 0.075 0.075 0.075 0.075 0.075 0.075 0.075 0.075 0.075 0.075 0.075 0.075 0.075 0.075 0.075 0.075 0.075 0.075 0.075 0.075 0.075 0.075 0.075 0.075 0.075 0.075 0.075 0.075 0.075 0.075 0.075 0.075 0.075 0.075 0.075 0.075 0.075 0.075 0.075 0.075 0.075 0.075 0.075 0.075 0.075 0.075 0.075 0.075 0.075 0.075 0.075 0.075 0.075 0.075 0.075 0.075 0.075 0.075 0.075 0.075 0.075 0.075 0.075 0.075 0.075 0.075 0.075 0.075 0.075 0.075 0.075 0.075 0.075 0.075 0.075 0.075 0.075 0.075 0.075 0.075 0.075 0.075 0.075 0.075 0.075 0.075 0.075 0.075 0.03 0.03 0.03 0.03 0.03 0.03 0.03 0.03 0.03 0.03 0.03 0.03 0.03 0.03 0.03 0.03 0.03 0.03 0.03 0.03 0.03 0.03 0.03 0.02 0.02 0.02 0.02 0.02 0.02 0.02 0.02 0.02 0.02 0.02 0.02 0.02 0.02 0.02 0.02 0.02 0.02 0.02 0.02 0.02 0.02 0.02 0.03 0.03 0.03 0.03 0.03 0.03 0.03 0.03 0.03 0.03 0.03 0.02 0.02 0.02 0.03 0.03 0.03 0.03 0.03 0.03 0.03 0.03 0.03 0.03 0.02 0.02 0.02 0.03 0.03 0.03 0.03 0.03 0.03 0.03 0.03 0.03 0.03 0.03 0.03 0.03 0.03 0.03 0.02 0.02 0.05 0.05 0.05 0.05 0.05 0.02 0.02 0.02 0.03 0.03 0.03 0.02 0.03 0.075 0.075 0.075 0.075 0.075 0.075 0.075 0.075 0.075 0.075 0.075 0.075 0.075 0.075 0.075 0.075 0.075 0.075 0.075 0.075 0.075 0.075 0.075 0.075 0.075 0.075 0.075 0.075 0.075 0.075 0.075 0.075 0.075 0.075 0.075 0.075 0.075 0.075 0.075 0.075 0.075 0.075 0.075 0.075 0.075 0.075 0.075 0.075 0.075 0.075 0.075 0.075 0.075 0.075 0.075 0.075 0.075 0.075 0.075 0.075 0.075 0.075 0.075 0.075 0.075 0.075 0.075 0.075 0.075 0.075 0.075 0.075 0.075 0.075 0.075 0.075 0.075 0.075 0.075 0.075 0.075 0.075 0.075 0.075 0.075 0.075 0.075 0.075 0.075 0.075 0.075 0.075 0.075 0.075 0.075 0.075 0.075 0.075 0.075 0.075 0.075 0.075 0.075 0.075 0.075 0.075 0.075 0.075 0.075 0.075 0.075 0.075 0.075 0.075 0.075 0.075 0.075 0.075 0.075 0.075 0.075 0.075 0.075 0.075 0.075 0.075 0.075 0.075 0.075 0.075 0.075 0.075 0.075 0.075 0.075 0.075 0.075 0.075 0.075 0.075 0.075 0.075 0.075 0.075 0.075 0.075 0.075 0.075 0.075 0.075 0.075 0.075 0.075 0.075 0.075 0.075 0.075 0.075 0.075 0.075 0.075 0.075 0.075 0.075 0.075 0.075 0.075 0.075 0.075 0.075 0.075 0.075 0.075 0.075 0.075 0.075 0.075 0.075 0.075 0.075 0.075 0.075 0.075 0.075 0.075 0.075 0.075 0.075 0.075 0.075 0.075 0.075 0.075 0.075 0.075 0.075 0.075 0.075 0.075 0.075 0.075 0.075 0.075 0.075 0.075 0.075 0.02 0.02 0.02 0.02 0.05 0.05 0.05 0.05 0.05 0.05 0.05 0.05 0.05 0.05 0.05 0.05 0.05 0.05 0.05 0.02 0.02 0.02 0.03 0.03 0.03 0.03 0.03 0.03 0.02 0.02 0.02 0.03 0.03 0.03 0.03 0.03 0.02 0.02 0.02 0.05 0.05 0.05 0.05 0.05 0.05 0.05 0.05 0.05 0.05 0.05 0.03 0.03 0.03 0.03 0.03 0.03 0.03 0.03 0.03 0.03 0.02 0.02 0.02 0.02 0.02 0.02 0.03 0.03 0.03 0.03 0.03 0.03 0.03 0.03 0.03 0.03 0.03 0.03 0.03 0.02 0.02 0.03 0.03 0.02 0.03 0.02 0.05 0.075 0.075 0.075 0.075 0.075 0.075 0.075 0.075 0.075 0.075 0.075 0.075 0.075 0.075 0.075 0.075 0.075 0.075 0.075 0.075 0.075 0.075 0.075 0.075 0.075 0.075 0.075 0.075 0.075 0.075 0.075 0.075 0.075 0.075 0.075 0.075 0.075 0.075 0.075 0.075 0.075 0.075 0.075 0.075 0.075 0.075 0.075 0.075 0.075 0.075 0.075 0.075 0.075 0.075 0.075 0.075 0.075 0.075 0.075 0.075 0.075 0.075 0.075 0.075 0.075 0.075 0.075 0.075 0.075 0.075 0.075 0.075 0.075 0.075 0.075 0.075 0.075 0.075 0.075 0.075 0.075 0.075 0.075 0.075 0.075 0.075 0.075 0.075 0.075 0.075 0.075 0.075 0.075 0.075 0.075 0.075 0.075 0.075 0.075 0.075 0.075 0.075 0.075 0.075 0.075 0.075 0.075 0.075 0.075 0.075 0.075 0.075 0.075 0.075 0.075 0.075 0.075 0.075 0.075 0.075 0.075 0.075 0.075 0.075 0.075 0.075 0.075 0.075 0.075 0.075 0.075 0.075 0.075 0.075 0.075 0.075 0.075 0.075 0.075 0.075 0.075 0.075 0.075 0.075 0.075 0.075 0.075 0.075 0.075 0.075 0.075 0.075 0.075 0.075 0.075 0.075 0.075 0.075 0.075 0.075 0.075 0.075 0.075 0.075 0.075 0.075 0.075 0.075 0.075 0.075 0.075 0.075 0.075 0.075 0.075 0.075 0.075 0.075 0.075 0.075 0.075 0.075 0.075 0.075 0.075 0.075 0.075 0.075 0.075 0.075 0.075 0.075 0.075 0.075 0.075 0.075 0.03 0.03 0.03 0.03 0.03 0.03 0.03 0.03 0.03 0.03 0.03 0.03 0.03 0.03 0.03 0.03 0.03 0.03 0.03 0.03 0.03 0.02 0.02 0.02 0.03 0.03 0.03 0.03 0.02 0.02 0.02 0.02 0.02 0.03 0.03 0.03 0.02 0.02 0.03 0.03 0.03 0.03 0.03 0.03 0.03 0.02 0.05 0.05 0.03 0.02 0.075 0.075 0.075 0.075 0.075 0.075 0.075 0.075 0.075 0.075 0.075 0.075 0.075 0.075 0.075 0.075 0.075 0.075 0.075 0.075 0.075 0.075 0.075 0.075 0.075 0.075 0.075 0.075 0.075 0.075 0.075 0.075 0.075 0.075 0.075 0.075 0.075 0.075 0.075 0.075 0.075 0.075 0.075 0.075 0.075 0.075 0.075 0.075 0.075 0.075 0.075 0.075 0.075 0.075 0.075 0.075 0.075 0.075 0.075 0.075 0.075 0.075 0.075 0.075 0.075 0.075 0.075 0.075 0.075 0.075 0.075 0.075 0.075 0.075 0.075 0.075 0.075 0.075 0.075 0.075 0.075 0.075 0.075 0.075 0.075 0.075 0.075 0.075 0.075 0.075 0.075 0.075 0.075 0.075 0.075 0.075 0.075 0.075 0.075 0.075 0.075 0.075 0.075 0.075 0.075 0.075 0.075 0.075 0.075 0.075 0.075 0.075 0.075 0.075 0.075 0.075 0.075 0.075 0.075 0.075 0.075 0.075 0.075 0.075 0.075 0.075 0.075 0.075 0.075 0.075 0.075 0.075 0.075 0.075 0.075 0.075 0.075 0.075 0.075 0.075 0.075 0.075 0.075 0.075 0.075 0.075 0.075 0.075 0.075 0.075 0.075 0.075 0.075 0.075 0.075 0.075 0.075 0.075 0.075 0.075 0.075 0.075 0.075 0.075 0.075 0.075 0.075 0.075 0.075 0.075 0.075 0.075 0.075 0.075 0.075 0.075 0.075 0.075 0.075 0.075 0.075 0.075 0.075 0.075 0.02 0.02 0.02 0.03 0.03 0.03 0.03 0.03 0.03 0.03 0.03 0.03 0.03 0.03 0.03 0.03 0.03 0.03 0.02 0.03 0.03 0.02 0.05 0.05 0.03 0.075 0.075 0.075 0.075 0.075 0.075 0.075 0.075 0.075 0.075 0.075 0.075 0.075 0.075 0.075 0.075 0.075 0.075 0.075 0.075 0.075 0.075 0.075 0.075 0.075 0.075 0.075 0.075 0.075 0.075 0.075 0.075 0.075 0.075 0.075 0.075 0.075 0.075 0.075 0.075 0.075 0.075 0.075 0.075 0.075 0.075 0.075 0.075 0.075 0.075 0.075 0.075 0.075 0.075 0.075 0.075 0.075 0.075 0.075 0.075 0.075 0.075 0.075 0.075 0.075 0.075 0.075 0.075 0.075 0.075 0.075 0.075 0.075 0.075 0.075 0.075 0.075 0.075 0.075 0.075 0.075 0.075 0.075 0.075 0.075 0.075 0.075 0.075 0.075 0.075 0.075 0.075 0.075 0.075 0.075 0.075 0.075 0.075 0.075 0.075 0.075 0.075 0.075 0.075 0.075 0.075 0.075 0.075 0.075 0.075 0.075 0.075 0.075 0.075 0.075 0.075 0.075 0.075 0.075 0.075 0.075 0.075 0.075 0.075 0.075 0.075 0.075 0.075 0.075 0.075 0.075 0.075 0.075 0.075 0.075 0.075 0.075 0.075 0.075 0.075 0.075 0.075 0.075 0.075 0.075 0.075 0.075 0.075 0.075 0.075 0.075 0.075 0.075 0.075 0.075 0.075 0.075 0.075 0.075 0.075 0.075 0.075 0.075 0.075 0.075 0.075 0.075 0.075 0.075 0.075 0.075 0.03 0.03 0.03 0.03 0.03 0.075 0.075 0.075 0.075 0.075 0.075 0.075 0.075 0.075 0.075 0.075 0.075 0.075 0.075 0.075 0.075 0.075 0.075 0.075 0.075 0.075 0.075 0.075 0.075 0.075 0.075 0.075 0.075 0.075 0.075 0.075 0.075 0.075 0.075 0.075 0.075 0.075 0.075 0.075 0.075 0.075 0.075 0.075 0.075 0.075 0.075 0.075 0.075 0.075 0.075 0.075 0.075 0.075 0.075 0.075 0.075 0.075 0.075 0.075 0.075 0.075 0.075 0.075 0.075 0.075 0.075 0.075 0.075 0.075 0.075 0.075 0.075 0.075 0.075 0.075 0.075 0.075 0.075 0.075 0.075 0.075 0.075 0.075 0.075 0.075 0.075 0.075 0.075 0.075 0.075 0.075 0.075 0.075 0.075 0.075 0.075 0.075 0.075 0.075 0.075 0.075 0.075 0.075 0.075 0.075 0.075 0.075 0.075 0.075 0.075 0.075 0.075 0.075 0.075 0.075 0.075 0.075 0.075 0.075 0.075 0.075 0.075 0.075 0.075 0.075 0.075 0.075 0.075 0.075 0.075 0.075 0.075 0.075 0.075 0.075 0.075 0.075 0.075 0.075 0.075 0.075 0.075 0.075 0.075 0.075 0.075 0.075 0.075 0.075 0.075 0.075 0.075 0.075 0.075 0.075 0.075 0.075 0.075 0.075 0.075 0.075 0.075 0.075 0.075 0.075 0.075 0.075 0.075 0.075 0.075 0.075 0.075 0.075 0.075 0.075 0.075 0.075 0.075 0.075 0.075 0.075 0.075 0.075 0.075 0.075 0.075 0.075 0.075 0.075 0.075 0.075 0.075 0.075 0.075 0.075 0.075 0.075 0.075 0.075 0.075 0.075 0.075 0.075 0.075 0.075 0.075 0.075 0.075 0.075 0.075 0.075 0.075 0.075 0.075 0.075 0.075 0.075 0.075 0.075 0.075 0.075 0.075 0.075 0.075 0.075 0.075 0.075 0.075 0.075 0.075 0.075 0.075 0.075 0.075 0.075 0.075 0.075 0.075 0.075 0.075 0.075 0.075 0.075 0.075 0.075 0.075 0.075 0.075 0.075 0.075 0.075 0.075 0.075 0.075 0.075 0.075 0.075 0.075 0.075 0.075 
</DataArray>
<DataArray type="Float32" Name="type" NumberOfComponents="1" format="ascii" >
1 1 1 1 1 1 1 1 1 1 1 1 2 2 2 2 2 2 2 2 2 2 2 2 2 2 2 2 2 2 2 2 2 2 2 2 2 2 2 2 2 2 2 2 2 2 2 2 2 2 2 2 2 2 2 2 2 2 2 2 2 2 2 2 2 2 2 2 2 2 2 2 2 2 2 2 2 2 2 2 2 2 2 2 2 2 2 2 2 2 2 2 2 2 2 2 2 2 2 2 2 2 2 2 2 2 2 2 2 2 2 2 2 2 2 2 2 2 2 2 2 2 2 2 2 2 2 2 2 2 2 2 2 2 2 2 2 2 2 2 2 2 2 2 2 2 2 2 2 2 2 2 2 2 2 2 2 2 2 2 2 2 2 2 2 2 2 2 2 2 2 2 2 2 2 2 2 2 2 2 2 2 2 2 2 2 2 2 2 2 2 2 2 2 2 2 2 2 2 2 2 2 2 2 2 2 2 2 2 2 2 2 2 2 2 2 2 2 2 2 2 2 2 2 2 2 2 2 2 2 2 2 2 4 4 4 4 4 4 4 4 4 4 4 4 4 4 4 4 4 5 5 5 5 5 5 5 5 5 4 4 4 4 4 4 4 4 4 4 4 4 4 4 4 4 4 4 4 4 4 4 4 4 4 4 4 4 4 4 4 4 4 4 4 4 4 4 4 4 4 4 4 4 4 4 4 5 5 5 4 4 4 4 4 4 5 5 5 4 4 4 4 4 4 4 4 4 4 4 4 4 4 4 5 5 5 5 5 5 4 4 4 4 5 5 4 4 4 4 4 4 4 4 4 5 5 5 5 4 4 2 2 2 2 2 2 2 2 2 2 2 2 2 2 2 2 2 2 2 2 2 2 2 2 2 2 2 2 2 2 2 2 2 2 2 2 2 2 2 2 2 2 2 2 2 2 2 2 2 2 2 2 2 2 2 2 2 2 2 2 2 2 2 2 2 2 2 2 2 2 2 2 2 2 2 2 2 2 2 2 2 2 2 2 2 2 2 2 2 2 2 2 2 2 2 2 2 2 2 2 2 2 2 2 2 2 2 2 2 2 2 2 2 2 2 2 2 2 2 2 2 2 2 2 2 2 2 2 2 2 2 2 2 2 2 2 2 2 2 2 2 2 2 2 2 2 2 2 2 2 2 2 2 2 2 2 2 2 2 2 2 2 2 2 2 2 2 2 2 2 2 2 2 2 2 2 2 2 2 2 2 2 2 2 2 2 2 2 2 2 2 2 2 2 2 2 2 2 2 2 2 2 2 2 2 2 2 2 2 2 2 2 2 2 2 2 4 4 4 4 4 4 4 4 4 4 4 4 4 4 4 4 4 4 4 4 4 4 4 5 5 5 5 5 5 5 5 5 5 5 5 5 5 5 5 5 5 5 5 5 5 5 4 4 4 4 4 4 4 4 4 4 4 5 5 5 4 4 4 4 4 4 4 4 4 4 5 5 5 4 4 4 4 4 4 4 4 4 4 4 4 4 4 4 5 5 3 3 3 3 3 5 5 5 4 4 4 5 4 2 2 2 2 2 2 2 2 2 2 2 2 2 2 2 2 2 2 2 2 2 2 2 2 2 2 2 2 2 2 2 2 2 2 2 2 2 2 2 2 2 2 2 2 2 2 2 2 2 2 2 2 2 2 2 2 2 2 2 2 2 2 2 2 2 2 2 2 2 2 2 2 2 2 2 2 2 2 2 2 2 2 2 2 2 2 2 2 2 2 2 2 2 2 2 2 2 2 2 2 2 2 2 2 2 2 2 2 2 2 2 2 2 2 2 2 2 2 2 2 2 2 2 2 2 2 2 2 2 2 2 2 2 2 2 2 2 2 2 2 2 2 2 2 2 2 2 2 2 2 2 2 2 2 2 2 2 2 2 2 2 2 2 2 2 2 2 2 2 2 2 2 2 2 2 2 2 2 2 2 2 2 2 2 2 2 2 2 2 2 2 2 2 2 2 2 2 2 2 2 2 2 2 2 2 2 5 5 5 5 3 3 3 3 3 3 3 3 3 3 3 3 3 3 3 5 5 5 4 4 4 4 4 4 5 5 5 4 4 4 4 4 5 5 5 3 3 3 3 3 3 3 3 3 3 3 4 4 4 4 4 4 4 4 4 4 5 5 5 5 5 5 4 4 4 4 4 4 4 4 4 4 4 4 4 5 5 4 4 5 4 5 3 2 2 2 2 2 2 2 2 2 2 2 2 2 2 2 2 2 2 2 2 2 2 2 2 2 2 2 2 2 2 2 2 2 2 2 2 2 2 2 2 2 2 2 2 2 2 2 2 2 2 2 2 2 2 2 2 2 2 2 2 2 2 2 2 2 2 2 2 2 2 2 2 2 2 2 2 2 2 2 2 2 2 2 2 2 2 2 2 2 2 2 2 2 2 2 2 2 2 2 2 2 2 2 2 2 2 2 2 2 2 2 2 2 2 2 2 2 2 2 2 2 2 2 2 2 2 2 2 2 2 2 2 2 2 2 2 2 2 2 2 2 2 2 2 2 2 2 2 2 2 2 2 2 2 2 2 2 2 2 2 2 2 2 2 2 2 2 2 2 2 2 2 2 2 2 2 2 2 2 2 2 2 2 2 2 2 2 2 2 2 2 2 2 2 2 2 4 4 4 4 4 4 4 4 4 4 4 4 4 4 4 4 4 4 4 4 4 5 5 5 4 4 4 4 5 5 5 5 5 4 4 4 5 5 4 4 4 4 4 4 4 5 3 3 4 5 2 2 2 2 2 2 2 2 2 2 2 2 2 2 2 2 2 2 2 2 2 2 2 2 2 2 2 2 2 2 2 2 2 2 2 2 2 2 2 2 2 2 2 2 2 2 2 2 2 2 2 2 2 2 2 2 2 2 2 2 2 2 2 2 2 2 2 2 2 2 2 2 2 2 2 2 2 2 2 2 2 2 2 2 2 2 2 2 2 2 2 2 2 2 2 2 2 2 2 2 2 2 2 2 2 2 2 2 2 2 2 2 2 2 2 2 2 2 2 2 2 2 2 2 2 2 2 2 2 2 2 2 2 2 2 2 2 2 2 2 2 2 2 2 2 2 2 2 2 2 2 2 2 2 2 2 2 2 2 2 2 2 2 2 2 2 2 2 2 2 2 2 2 2 2 2 2 2 2 2 2 2 2 2 5 5 5 4 4 4 4 4 4 4 4 4 4 4 4 4 4 4 5 4 4 5 3 3 4 2 2 2 2 2 2 2 2 2 2 2 2 2 2 2 2 2 2 2 2 2 2 2 2 2 2 2 2 2 2 2 2 2 2 2 2 2 2 2 2 2 2 2 2 2 2 2 2 2 2 2 2 2 2 2 2 2 2 2 2 2 2 2 2 2 2 2 2 2 2 2 2 2 2 2 2 2 2 2 2 2 2 2 2 2 2 2 2 2 2 2 2 2 2 2 2 2 2 2 2 2 2 2 2 2 2 2 2 2 2 2 2 2 2 2 2 2 2 2 2 2 2 2 2 2 2 2 2 2 2 2 2 2 2 2 2 2 2 2 2 2 2 2 2 2 2 2 2 2 2 2 2 2 2 2 2 2 2 2 2 2 2 2 2 2 2 2 2 2 2 2 4 4 4 4 4 2 2 2 2 2 2 2 2 2 2 2 2 2 2 2 2 2 2 2 2 2 2 2 2 2 2 2 2 2 2 2 2 2 2 2 2 2 2 2 2 2 2 2 2 2 2 2 2 2 2 2 2 2 2 2 2 2 2 2 2 2 2 2 2 2 2 2 2 2 2 2 2 2 2 2 2 2 2 2 2 2 2 2 2 2 2 2 2 2 2 2 2 2 2 2 2 2 2 2 2 2 2 2 2 2 2 2 2 2 2 2 2 2 2 2 2 2 2 2 2 2 2 2 2 2 2 2 2 2 2 2 2 2 2 2 2 2 2 2 2 2 2 2 2 2 2 2 2 2 2 2 2 2 2 2 2 2 2 2 2 2 2 2 2 2 2 2 2 2 2 2 2 2 2 2 2 2 2 2 2 2 2 2 2 2 2 2 2 2 2 2 2 2 2 2 2 2 2 2 2 2 2 2 2 2 2 2 2 2 2 2 2 2 2 2 2 2 2 2 2 2 2 2 2 2 2 2 2 2 2 2 2 2 2 2 2 2 2 2 2 2 2 2 2 2 2 2 2 2 2 2 2 2 2 2 2 2 2 2 2 
</DataArray>
<DataArray type="Float32" Name="time" NumberOfComponents="1" format="ascii" >
0.242582 0.50577 0.793393 1.11046 1.46369 1.8624 2.32007 2.85721 3.50735 4.75 6.875 14 1.63919 1.70598 1.77284 1.83983 1.87331 1.94039 1.97397 2.04117 2.07481 2.14219 2.17585 2.24331 2.27707 2.34466 2.37849 2.4462 2.4801 2.54797 2.5819 2.64987 2.68389 2.75214 2.78608 2.85434 2.88846 2.95683 2.99104 3.05955 3.09382 3.16244 3.19679 3.26556 3.29996 3.36885 3.40333 3.47243 3.5069 3.57605 3.61066 3.68004 3.71463 3.78406 3.8188 3.88847 3.92318 3.99287 4.02775 4.09763 4.13253 4.2025 4.23752 4.30764 4.34271 4.41295 4.44811 4.51853 4.55371 4.62423 4.65952 4.73019 4.76555 4.83636 4.87178 4.94272 4.97822 5.0497 5.08487 5.15609 5.19174 5.26315 5.29882 5.37032 5.40611 5.47777 5.51362 5.58549 5.62134 5.69328 5.72928 5.80144 5.83744 5.90966 5.94581 6.0182 6.05441 6.12693 6.16322 6.23593 6.27226 6.34515 6.38152 6.45448 6.491 6.56412 6.6007 6.67398 6.71063 6.78404 6.82078 6.89436 6.93116 7.00489 7.04177 7.11564 7.15261 7.22663 7.26367 7.33861 7.37497 7.44929 7.48649 7.56114 7.59825 7.6729 7.71024 7.78503 7.82247 7.89742 7.93493 8.01025 8.04763 8.12289 8.16056 8.23599 8.27373 8.34931 8.38714 8.46289 8.50079 8.5767 8.61469 8.69075 8.72882 8.80511 8.8432 8.9196 8.95782 9.03437 9.07268 9.14944 9.1878 9.2649 9.30316 9.38034 9.41877 9.49598 9.53462 9.612 9.65073 9.72831 9.76709 9.84489 9.8837 9.96181 10.0006 10.0786 10.1177 10.1959 10.2351 10.3136 10.3527 10.4313 10.4706 10.5496 10.5887 10.6681 10.7072 10.7863 10.8258 10.9051 10.9448 11.0243 11.064 11.1436 11.1834 11.2633 11.3032 11.3832 11.4232 11.5035 11.5434 11.6238 11.664 11.7446 11.7848 11.8655 11.9059 11.9867 12.0272 12.1083 12.1489 12.2301 12.2708 12.3522 12.3929 12.4749 12.5154 12.5972 12.6382 12.7202 12.7612 12.8434 12.8845 12.9669 13.0081 13.0909 13.1319 13.2147 13.2561 13.34 13.3806 13.4637 13.5053 13.5887 13.6303 13.7141 13.7557 13.8394 13.8813 13.9656 14 10.8137 11.1767 11.563 11.9742 12.4125 12.8846 13.3946 13.9491 14 10.9325 11.2981 11.6884 12.1064 12.5564 13.0417 13.5743 14 11.25 11.911 12.7469 13.8915 14 11.375 12.0527 12.9392 14 11.2915 11.6658 12.0727 12.5187 13.0127 13.5657 14 11.4091 11.7791 12.1767 12.6078 13.0774 13.5931 14 11.5289 11.8983 12.2917 12.7209 13.188 13.7017 14 11.6476 12.0185 12.4155 12.8446 13.3114 13.823 14 11.767 12.1331 12.5228 12.9388 13.3882 13.872 14 11.8904 12.2658 12.6753 13.1243 13.6233 14 12.0088 12.375 12.7705 13.1977 13.6619 14 12.3405 13.0417 14 12.2491 12.6115 12.995 13.4017 13.8333 14 12.5707 13.2222 14 12.4936 12.8624 13.2568 13.682 14 12.6152 12.9805 13.3702 13.7876 14 12.7387 13.1088 13.506 13.9343 14 13.0688 13.7647 14 13.2043 13.9583 14 13.1049 13.4673 13.8504 14 13.4388 14 13.3523 13.7189 14 13.4759 13.8435 14 13.6003 13.963 14 13.927 14 14 14 14 14 2.0532 2.11999 2.18676 2.25398 2.28719 2.35427 2.3878 2.45497 2.48858 2.55588 2.58954 2.65694 2.69067 2.7582 2.79198 2.85962 2.89347 2.96134 2.99514 3.06303 3.09698 3.16498 3.199 3.26719 3.30121 3.36944 3.40359 3.47202 3.50615 3.57463 3.6089 3.67751 3.71183 3.78055 3.81494 3.88383 3.91823 3.9872 4.02171 4.09081 4.12538 4.19459 4.22923 4.29879 4.33326 4.40272 4.43748 4.50737 4.54189 4.61161 4.64649 4.71633 4.75128 4.82125 4.85626 4.92637 4.96143 5.03164 5.06679 5.13713 5.17234 5.24281 5.27808 5.34875 5.38401 5.45475 5.49014 5.56105 5.59647 5.66787 5.70299 5.77411 5.8097 5.88111 5.91662 5.988 6.02373 6.09529 6.13104 6.20268 6.23854 6.31035 6.34625 6.41817 6.45416 6.52621 6.56226 6.63462 6.67057 6.74289 6.77909 6.85156 6.8878 6.96061 6.99672 7.06945 7.10585 7.17879 7.21518 7.28818 7.32472 7.39788 7.43446 7.50776 7.54441 7.61783 7.65458 7.72815 7.76495 7.83865 7.87553 7.94937 7.98632 8.0604 8.09733 8.17166 8.20854 8.28281 8.31997 8.39439 8.43162 8.50647 8.54348 8.61818 8.65556 8.7304 8.76785 8.84285 8.88037 8.95549 8.9931 9.06838 9.10605 9.18147 9.21922 9.29487 9.33261 9.40833 9.44622 9.5221 9.56006 9.63623 9.67412 9.7508 9.78841 9.86473 9.90292 9.97945 10.0177 10.0949 10.1326 10.2095 10.2478 10.3247 10.3632 10.4406 10.4789 10.5562 10.5948 10.6723 10.7109 10.7884 10.8272 10.9049 10.9438 11.0217 11.0606 11.139 11.1777 11.256 11.295 11.3733 11.4125 11.491 11.5303 11.6089 11.6483 11.7274 11.7665 11.8457 11.885 11.9641 12.0038 12.083 12.1227 12.2022 12.2419 12.3216 12.3614 12.4412 12.4811 12.5611 12.6011 12.6812 12.7213 12.8022 12.8417 12.9222 12.9625 13.0432 13.0834 13.1642 13.2046 13.2856 13.3261 13.4072 13.4478 13.5291 13.5698 13.6513 13.692 13.7737 13.8145 13.8964 13.9373 14 11.1667 11.5283 11.9118 12.3177 12.75 13.2133 13.7083 14 11.2878 11.6532 12.0417 12.4583 12.9066 13.3926 13.9223 14 11.4092 11.7882 12.2038 12.6643 13.1804 13.7682 14 11.7422 12.4886 13.5833 14 11.8333 12.4831 13.2917 14 11.9583 12.6345 13.5149 14 12.0833 12.7884 13.75 14 12.1973 12.8713 13.7431 14 12.3333 13.0833 14 12.2307 12.6009 13 13.4328 13.9056 14 12.3513 12.7275 13.139 13.5907 14 12.6801 13.3928 14 12.5833 12.9463 13.3307 13.7393 14 12.706 13.0688 13.4523 13.8606 14 13.0681 13.9346 14 12.9448 13.3109 13.7022 14 13.0666 13.4374 13.8333 14 13.1898 13.5678 13.9804 14 13.3086 13.6783 14 13.625 14 13.3717 13.5392 13.707 13.875 14 13.8692 14 14 13.9164 14 14 14 14 2.53099 2.59779 2.66466 2.73163 2.76514 2.83223 2.86581 2.93303 2.96667 3.03402 3.06772 3.13521 3.16897 3.23658 3.27042 3.33816 3.37206 3.43994 3.47389 3.54167 3.57592 3.64406 3.67816 3.74642 3.78059 3.84899 3.88321 3.95175 3.98604 4.05487 4.08907 4.15787 4.19231 4.26125 4.29574 4.36481 4.39938 4.46859 4.50322 4.57256 4.60727 4.67684 4.71152 4.78114 4.81598 4.8858 4.92065 4.99054 5.02553 5.09563 5.13061 5.20078 5.2359 5.30623 5.34141 5.41186 5.44713 5.51774 5.55306 5.6238 5.6592 5.73008 5.76556 5.83692 5.87213 5.94333 5.97892 6.05041 6.08592 6.15738 6.19315 6.26475 6.30059 6.37234 6.40825 6.48018 6.51613 6.58818 6.62423 6.69642 6.73256 6.80491 6.8411 6.91359 6.94988 7.02255 7.05887 7.13171 7.1681 7.24104 7.27755 7.35074 7.38722 7.46055 7.49713 7.57056 7.60727 7.68083 7.71763 7.79134 7.82823 7.9021 7.93906 8.0131 8.05013 8.1243 8.16142 8.23576 8.27296 8.3478 8.38473 8.45946 8.49674 8.57161 8.60899 8.68396 8.72147 8.79669 8.8342 8.90949 8.94717 9.02263 9.06038 9.13599 9.17384 9.24961 9.28754 9.36353 9.40148 9.47773 9.51567 9.59223 9.63012 9.70655 9.74481 9.82141 9.85975 9.93651 9.97494 10.0519 10.0904 10.1678 10.2061 10.2834 10.322 10.3995 10.4382 10.5165 10.5547 10.6327 10.6714 10.7494 10.7884 10.8666 10.9056 10.984 11.0231 11.1017 11.1409 11.2197 11.2589 11.338 11.3772 11.4562 11.4958 11.5751 11.6146 11.694 11.7337 11.8134 11.8531 11.9328 11.9727 12.0527 12.0926 12.173 12.2128 12.2931 12.3333 12.4137 12.454 12.5346 12.575 12.6559 12.6963 12.7773 12.8179 12.8991 12.9397 13.0211 13.0619 13.1434 13.1843 13.2661 13.307 13.3892 13.43 13.5121 13.5532 13.636 13.6768 13.7597 13.8007 13.8834 13.9248 14 11.9343 12.6441 13.6218 14 11.6636 11.8323 12.0027 12.1745 12.3458 12.5202 12.6963 12.8735 13.053 13.2312 13.413 13.5962 13.7814 13.9679 14 12.1868 12.9706 14 12.0773 12.4404 12.8256 13.2356 13.6744 14 12.4083 13.1118 14 12.3227 12.7083 13.1409 13.6324 14 12.6387 13.2994 14 12.38 12.5471 12.7141 12.8813 13.0477 13.2155 13.3842 13.5526 13.7205 13.8856 14 12.6774 13.0394 13.4218 13.8274 14 12.7979 13.1615 13.5475 13.9583 14 13.125 13.8027 14 13.2492 13.9377 14 13.1653 13.5408 13.9508 14 13.2869 13.6636 14 13.4048 13.7677 14 13.526 13.8837 14 13.8591 14 13.7735 14 14 14 14 14 3.09623 3.16304 3.2299 3.297 3.33043 3.39757 3.43117 3.49844 3.53212 3.59957 3.63328 3.70085 3.73467 3.80238 3.83626 3.90412 3.93808 4.00621 4.04011 4.10826 4.14236 4.21068 4.24483 4.31331 4.34752 4.41611 4.45044 4.51926 4.55357 4.62245 4.65693 4.72613 4.76051 4.82969 4.86432 4.93369 4.96836 5.03784 5.07262 5.14233 5.17711 5.2469 5.28183 5.35188 5.38678 5.45688 5.49196 5.56223 5.59738 5.66812 5.70302 5.77361 5.80891 5.87964 5.91502 5.9859 6.02138 6.09243 6.12797 6.19917 6.2348 6.30616 6.34187 6.41339 6.44918 6.52087 6.55674 6.62864 6.66453 6.73655 6.77258 6.84475 6.88086 6.95319 6.98939 7.06189 7.09817 7.17088 7.2072 7.28003 7.31648 7.38972 7.42601 7.49917 7.53579 7.60917 7.64583 7.71933 7.75612 7.82978 7.86666 7.9406 7.97746 8.05147 8.08852 8.1627 8.19984 8.27421 8.31142 8.38597 8.42326 8.49797 8.53536 8.61037 8.64773 8.72302 8.76036 8.8358 8.87326 8.94868 8.98643 9.06208 9.09987 9.17577 9.21357 9.28953 9.32755 9.4037 9.4418 9.51823 9.55633 9.63289 9.67113 9.74782 9.78621 9.86308 9.90157 9.97863 10.0172 10.0945 10.1331 10.2107 10.2493 10.3269 10.3658 10.4437 10.4826 10.5606 10.5996 10.6778 10.717 10.7958 10.8346 10.9132 10.9525 11.0313 11.0707 11.1497 11.1893 11.2685 11.3081 11.3881 11.4272 11.5069 11.5466 11.6264 11.6663 11.7462 11.7863 11.8664 11.9066 11.987 12.0272 12.1078 12.1481 12.229 12.2693 12.3505 12.3908 12.4721 12.5127 12.5942 12.6348 12.7166 12.7573 12.8391 12.8801 12.9623 13.0032 13.0856 13.1266 13.2083 13.2503 13.333 13.3744 13.4573 13.4987 13.5819 13.6235 13.7068 13.7485 13.832 13.8738 13.9576 13.9995 14 12.3711 12.7352 13.1235 13.5374 13.9822 14 12.4919 12.8601 13.25 13.6722 14 12.6145 12.9833 13.375 13.8005 14 12.7345 13.1001 13.4904 13.9089 14 13.0608 13.7306 14 12.9807 13.3515 13.7494 14 13.3016 13.9543 14 13.4366 14 13.3564 13.75 14 13.676 14 13.5947 13.9583 14 13.7177 14 13.8417 14 14 13.9155 14 14 14 3.78794 3.85475 3.92164 3.98863 4.02216 4.08939 4.12289 4.19016 4.22383 4.29123 4.32497 4.39261 4.42634 4.49403 4.52791 4.59582 4.6297 4.69767 4.7317 4.79982 4.83392 4.90218 4.93635 5.00485 5.039 5.10756 5.14187 5.2107 5.24496 5.31381 5.34827 5.41667 5.4518 5.52101 5.55555 5.62484 5.65952 5.72897 5.76372 5.83331 5.86814 5.93796 5.97279 6.0427 6.07767 6.14772 6.18277 6.25347 6.2881 6.35847 6.39367 6.46432 6.49946 6.57012 6.60548 6.6763 6.71174 6.78271 6.81823 6.88943 6.92496 6.99624 7.03192 7.10352 7.13911 7.21081 7.24655 7.31831 7.35423 7.42615 7.46214 7.53422 7.5703 7.64274 7.6787 7.75139 7.78734 7.85994 7.89623 7.96903 8.00536 8.07825 8.11474 8.18782 8.22436 8.29774 8.33424 8.40763 8.44436 8.518 8.55474 8.62847 8.66537 8.73927 8.77625 8.85042 8.88739 8.96163 8.99878 9.07319 9.11043 9.18505 9.22234 9.29709 9.3345 9.40942 9.44693 9.52205 9.55962 9.63519 9.67257 9.74802 9.78579 9.86143 9.89927 9.97526 10.013 10.0891 10.127 10.2032 10.2413 10.3177 10.3559 10.4324 10.4707 10.5475 10.5858 10.6627 10.7012 10.7783 10.8168 10.8941 10.9328 11.0105 11.049 11.1267 11.1655 11.2433 11.2822 11.3603 11.3993 11.4775 11.5166 11.595 11.6342 11.7129 11.7521 11.8309 11.8703 11.9493 11.9888 12.068 12.1076 12.1869 12.2266 12.3063 12.346 12.4259 12.4657 12.5457 12.5856 12.6657 12.7059 12.7862 12.8264 12.907 12.9472 13.028 13.0684 13.1494 13.1899 13.2711 13.3116 13.393 13.4337 13.5153 13.5561 13.6379 13.6787 13.7608 13.8017 13.8842 13.9251 14 13.2488 13.8988 14 13.1725 13.5417 13.9442 14 13.2887 13.647 14 13.4107 13.7708 14 13.5333 13.8973 14 13.6557 14 14 13.8993 14 14 13.9724 14 14 4.67977 4.74657 4.81343 4.88041 4.91393 4.98107 5.01463 5.08187 5.11552 5.18296 5.21662 5.28413 5.31792 5.38565 5.41942 5.4872 5.52112 5.58962 5.62303 5.6911 5.72515 5.79334 5.82747 5.8958 5.93 5.99846 6.03273 6.10134 6.13568 6.20442 6.23883 6.30772 6.34219 6.41122 6.44577 6.51494 6.54956 6.61887 6.65356 6.72302 6.75777 6.82736 6.8622 6.93194 6.96684 7.03672 7.0717 7.14187 7.17678 7.24695 7.28208 7.35241 7.38759 7.45806 7.49333 7.56396 7.59928 7.67012 7.70546 7.77638 7.81186 7.88296 7.91849 7.98969 8.02534 8.09675 8.13241 8.20392 8.23971 8.31139 8.34724 8.41966 8.455 8.52697 8.56299 8.63511 8.6712 8.74348 8.77965 8.85209 8.88834 8.96095 8.99725 9.07 9.1064 9.17948 9.21579 9.28884 9.32541 9.39862 9.43527 9.50865 9.54536 9.6189 9.6557 9.72942 9.76628 9.84017 9.8771 9.95111 9.98816 10.0623 10.0995 10.174 10.211 10.2855 10.3228 10.3976 10.4349 10.5098 10.5472 10.6222 10.6597 10.7349 10.7725 10.8478 10.8855 10.9613 10.9988 11.0745 11.1124 11.1882 11.2262 11.3022 11.3402 11.4164 11.4546 11.5309 11.5691 11.6457 11.684 11.7608 11.7991 11.8764 11.9144 11.9915 12.03 12.1073 12.1459 12.2234 12.2621 12.3397 12.3785 12.4563 12.4952 12.5731 12.6121 12.6903 12.7294 12.8077 12.8469 12.9256 12.9646 13.0433 13.0827 13.1615 13.201 13.2801 13.3196 13.3988 13.4385 13.5179 13.5576 13.6374 13.6771 13.7571 13.7968 13.8767 13.9168 13.9969 14 13.8999 14 14 14 14 5.93671 6.00375 6.07041 6.13742 6.17095 6.2381 6.27171 6.33932 6.37269 6.44016 6.47389 6.54148 6.57531 6.64306 6.67696 6.74484 6.77882 6.84688 6.88091 6.9491 6.98323 7.05179 7.08577 7.15426 7.18854 7.25724 7.29154 7.36033 7.39476 7.46377 7.49822 7.56734 7.60191 7.67128 7.70582 7.77524 7.80998 7.87963 7.91436 7.98409 8.01899 8.08888 8.12385 8.1939 8.22894 8.2992 8.33428 8.40463 8.43985 8.5104 8.54567 8.61634 8.65172 8.72258 8.75802 8.82903 8.86457 8.93576 8.97136 9.0428 9.07839 9.14995 9.18568 9.25768 9.29321 9.36504 9.40099 9.47304 9.50902 9.58118 9.61731 9.68968 9.72585 9.7984 9.83464 9.90731 9.94369 10.0166 10.053 10.1263 10.1626 10.2357 10.2724 10.3458 10.3825 10.456 10.4928 10.5665 10.6034 10.6774 10.7143 10.7883 10.8254 10.8997 10.9368 11.0113 11.0485 11.1231 11.1604 11.2353 11.2727 11.3476 11.3851 11.4603 11.4979 11.5732 11.6109 11.6864 11.7242 11.8 11.8378 11.9137 11.9517 12.0278 12.0658 12.1422 12.1803 12.2571 12.295 12.3716 12.41 12.4868 12.5252 12.6023 12.6408 12.7182 12.7567 12.8342 12.8728 12.9504 12.9893 13.067 13.106 13.184 13.223 13.3013 13.3403 13.4187 13.4579 13.5365 13.5759 13.6546 13.6941 13.7731 13.8126 13.8919 13.9314 14 8.0855 8.1523 8.21913 8.28611 8.31963 8.38677 8.42033 8.48757 8.52122 8.58861 8.62232 8.68988 8.72362 8.79127 8.82513 8.89292 8.92684 8.99476 9.02875 9.09684 9.13087 9.19906 9.2332 9.30204 9.33573 9.4042 9.43847 9.50711 9.54142 9.61017 9.64458 9.71348 9.74795 9.81698 9.85153 9.92088 9.95533 10.0247 10.0593 10.1288 10.1636 10.2332 10.268 10.3378 10.3726 10.4425 10.4775 10.5476 10.5826 10.6528 10.6879 10.7586 10.7934 10.8639 10.8992 10.9699 11.0052 11.0759 11.1113 11.1823 11.2178 11.2888 11.3244 11.3957 11.4313 11.5028 11.5384 11.6099 11.6457 11.7175 11.7532 11.825 11.861 11.933 11.969 12.0411 12.0772 12.1495 12.1857 12.2584 12.2944 12.367 12.4033 12.4761 12.5125 12.5856 12.6219 12.695 12.7316 12.8049 12.8414 12.9148 12.9516 13.0251 13.0619 13.1357 13.1725 13.2464 13.2834 13.3574 13.3944 13.4687 13.5058 13.5801 13.6174 13.6919 13.7292 13.8039 13.8412 13.9161 13.9536 14 
</DataArray>
<DataArray type="Float32" Name="pressure" NumberOfComponents="1" format="ascii" >