<?xml version="1.0"?><VTKFile type="PolyData" version="0.1" byte_order="LittleEndian">
<PolyData>
<Piece NumberOfLines="503" NumberOfPoints="504">
<CellData Scalars=" CellData">
<DataArray type="Float32" Name="radius" NumberOfComponents="1" format="ascii" >
0.15 0.15 0.15 0.15 0.15 0.15 0.15 0.15 0.15 0.15 0.15 0.15 0.075 0.075 0.075 0.075 0.075 0.075 0.075 0.075 0.075 0.075 0.075 0.075 0.075 0.075 0.075 0.075 0.075 0.075 0.075 0.075 0.075 0.075 0.075 0.075 0.075 0.075 0.075 0.075 0.075 0.075 0.075 0.075 0.075 0.075 0.075 0.075 0.075 0.075 0.075 0.075 0.075 0.075 0.075 0.075 0.075 0.075 0.075 0.075 0.075 0.075 0.075 0.075 0.075 0.075 0.075 0.075 0.075 0.075 0.075 0.075 0.075 0.075 0.075 0.075 0.075 0.075 0.075 0.075 0.075 0.075 0.075 0.075 0.075 0.075 0.075 0.075 0.075 0.075 0.075 0.075 0.075 0.075 0.075 0.075 0.075 0.075 0.075 0.075 0.075 0.075 0.075 0.075 0.075 0.075 0.075 0.075 0.075 0.075 0.075 0.075 0.075 0.075 0.075 0.075 0.075 0.075 0.075 0.075 0.075 0.075 0.075 0.075 0.075 0.075 0.075 0.075 0.075 0.075 0.075 0.075 0.075 0.075 0.075 0.075 0.075 0.075 0.075 0.075 0.075 0.075 0.075 0.075 0.075 0.075 0.075 0.075 0.075 0.075 0.075 0.075 0.075 0.075 0.075 0.075 0.075 0.075 0.075 0.075 0.075 0.075 0.075 0.075 0.075 0.075 0.075 0.075 0.075 0.075 0.075 0.075 0.075 0.075 0.075 0.075 0.075 0.075 0.075 0.075 0.075 0.075 0.075 0.075 0.075 0.075 0.075 0.075 0.075 0.075 0.075 0.075 0.075 0.075 0.075 0.075 0.075 0.075 0.075 0.075 0.075 0.075 0.075 0.075 0.075 0.075 0.075 0.075 0.075 0.075 0.075 0.075 0.075 0.075 0.075 0.075 0.075 0.075 0.075 0.075 0.075 0.075 0.075 0.075 0.075 0.075 0.075 0.075 0.075 0.075 0.075 0.075 0.075 0.075 0.075 0.075 0.075 0.075 0.075 0.075 0.075 0.075 0.075 0.075 0.075 0.075 0.075 0.075 0.075 0.075 0.075 0.075 0.075 0.075 0.075 0.075 0.075 0.075 0.075 0.075 0.075 0.075 0.075 0.075 0.075 0.075 0.075 0.075 0.075 0.075 0.075 0.075 0.075 0.075 0.075 0.075 0.075 0.075 0.075 0.075 0.075 0.075 0.075 0.075 0.075 0.075 0.075 0.075 0.075 0.075 0.075 0.075 0.075 0.075 0.075 0.075 0.075 0.075 0.075 0.075 0.075 0.075 0.075 0.075 0.075 0.075 0.075 0.075 0.075 0.075 0.075 0.075 0.075 0.075 0.075 0.075 0.075 0.075 0.075 0.075 0.075 0.075 0.075 0.075 0.075 0.075 0.075 0.075 0.075 0.075 0.075 0.075 0.075 0.075 0.075 0.075 0.075 0.075 0.075 0.075 0.075 0.075 0.075 0.075 0.075 0.075 0.075 0.075 0.075 0.075 0.075 0.075 0.075 0.075 0.075 0.075 0.075 0.075 0.075 0.075 0.075 0.075 0.075 0.075 0.075 0.075 0.075 0.075 0.075 0.075 0.075 0.075 0.075 0.075 0.075 0.075 0.075 0.075 0.075 0.075 0.075 0.075 0.075 0.075 0.075 0.075 0.075 0.075 0.075 0.075 0.075 0.075 0.075 0.075 0.075 0.075 0.075 0.075 0.075 0.075 0.075 0.075 0.075 0.075 0.075 0.075 0.075 0.075 0.075 0.075 0.075 0.075 0.075 0.075 0.075 0.075 0.075 0.075 0.075 0.075 0.075 0.075 0.075 0.075 0.075 0.075 0.075 0.075 0.075 0.075 0.075 0.075 0.075 0.075 0.075 0.075 0.075 0.075 0.075 0.075 0.075 0.075 0.075 0.075 0.075 0.075 0.075 0.075 0.075 0.075 0.075 0.075 0.075 0.075 0.075 0.075 0.075 0.075 0.075 0.075 0.075 0.075 0.075 0.075 0.075 0.075 0.075 0.075 0.075 0.075 0.075 0.075 0.075 0.075 0.075 0.075 0.075 0.075 0.075 0.075 0.075 0.075 0.075 0.075 0.075 0.075 0.075 0.075 0.075 0.075 0.075 0.075 0.075 0.075 0.075 0.075 0.075 0.075 0.075 0.075 0.075 0.075 0.075 
</DataArray>
<DataArray type="Float32" Name="type" NumberOfComponents="1" format="ascii" >
1 1 1 1 1 1 1 1 1 1 1 1 2 2 2 2 2 2 2 2 2 2 2 2 2 2 2 2 2 2 2 2 2 2 2 2 2 2 2 2 2 2 2 2 2 2 2 2 2 2 2 2 2 2 2 2 2 2 2 2 2 2 2 2 2 2 2 2 2 2 2 2 2 2 2 2 2 2 2 2 2 2 2 2 2 2 2 2 2 2 2 2 2 2 2 2 2 2 2 2 2 2 2 2 2 2 2 2 2 2 2 2 2 2 2 2 2 2 2 2 2 2 2 2 2 2 2 2 2 2 2 2 2 2 2 2 2 2 2 2 2 2 2 2 2 2 2 2 2 2 2 2 2 2 2 2 2 2 2 2 2 2 2 2 2 2 2 2 2 2 2 2 2 2 2 2 2 2 2 2 2 2 2 2 2 2 2 2 2 2 2 2 2 2 2 2 2 2 2 2 2 2 2 2 2 2 2 2 2 2 2 2 2 2 2 2 2 2 2 2 2 2 2 2 2 2 2 2 2 2 2 2 2 2 2 2 2 2 2 2 2 2 2 2 2 2 2 2 2 2 2 2 2 2 2 2 2 2 2 2 2 2 2 2 2 2 2 2 2 2 2 2 2 2 2 2 2 2 2 2 2 2 2 2 2 2 2 2 2 2 2 2 2 2 2 2 2 2 2 2 2 2 2 2 2 2 2 2 2 2 2 2 2 2 2 2 2 2 2 2 2 2 2 2 2 2 2 2 2 2 2 2 2 2 2 2 2 2 2 2 2 2 2 2 2 2 2 2 2 2 2 2 2 2 2 2 2 2 2 2 2 2 2 2 2 2 2 2 2 2 2 2 2 2 2 2 2 2 2 2 2 2 2 2 2 2 2 2 2 2 2 2 2 2 2 2 2 2 2 2 2 2 2 2 2 2 2 2 2 2 2 2 2 2 2 2 2 2 2 2 2 2 2 2 2 2 2 2 2 2 2 2 2 2 2 2 2 2 2 2 2 2 2 2 2 2 2 2 2 2 2 2 2 2 2 2 2 2 2 2 2 2 2 2 2 2 2 2 2 2 2 2 2 2 2 2 2 2 2 2 2 2 2 2 2 2 2 2 2 2 2 2 2 2 2 2 2 2 2 2 2 2 2 
</DataArray>
<DataArray type="Float32" Name="time" NumberOfComponents="1" format="ascii" >
0.242582 0.50577 0.793393 1.11046 1.46369 1.8624 2.32007 2.85721 3.50735 4.75 6.875 7 1.63919 1.70598 1.77284 1.83983 1.87331 1.94039 1.97397 2.04117 2.07481 2.14219 2.17585 2.24331 2.27707 2.34466 2.37849 2.4462 2.4801 2.54797 2.5819 2.64987 2.68389 2.75214 2.78608 2.85434 2.88846 2.95683 2.99104 3.05955 3.09382 3.16244 3.19679 3.26556 3.29996 3.36885 3.40333 3.47243 3.5069 3.57605 3.61066 3.68004 3.71463 3.78406 3.8188 3.88847 3.92318 3.99287 4.02775 4.09763 4.13253 4.2025 4.23752 4.30764 4.34271 4.41295 4.44811 4.51853 4.55371 4.62423 4.65952 4.73019 4.76555 4.83636 4.87178 4.94272 4.97822 5.0497 5.08487 5.15609 5.19174 5.26315 5.29882 5.37032 5.40611 5.47777 5.51362 5.58549 5.62134 5.69328 5.72928 5.80144 5.83744 5.90966 5.94581 6.0182 6.05441 6.12693 6.16322 6.23593 6.27226 6.34515 6.38152 6.45448 6.491 6.56412 6.6007 6.67398 6.71063 6.78404 6.82078 6.89436 6.93116 7 2.0532 2.11999 2.18676 2.25398 2.28719 2.35427 2.3878 2.45497 2.48858 2.55588 2.58954 2.65694 2.69067 2.7582 2.79198 2.85962 2.89347 2.96134 2.99514 3.06303 3.09698 3.16498 3.199 3.26719 3.30121 3.36944 3.40359 3.47202 3.50615 3.57463 3.6089 3.67751 3.71183 3.78055 3.81494 3.88383 3.91823 3.9872 4.02171 4.09081 4.12538 4.19459 4.22923 4.29879 4.33326 4.40272 4.43748 4.50737 4.54189 4.61161 4.64649 4.71633 4.75128 4.82125 4.85626 4.92637 4.96143 5.03164 5.06679 5.13713 5.17234 5.24281 5.27808 5.34875 5.38401 5.45475 5.49014 5.56105 5.59647 5.66787 5.70299 5.77411 5.8097 5.88111 5.91662 5.988 6.02373 6.09529 6.13104 6.20268 6.23854 6.31035 6.34625 6.41817 6.45416 6.52621 6.56226 6.63462 6.67057 6.74289 6.77909 6.85156 6.8878 6.96061 6.99672 7 2.53099 2.59779 2.66466 2.73163 2.76514 2.83223 2.86581 2.93303 2.96667 3.03402 3.06772 3.13521 3.16897 3.23658 3.27042 3.33816 3.37206 3.43994 3.47389 3.54167 3.57592 3.64406 3.67816 3.74642 3.78059 3.84899 3.88321 3.95175 3.98604 4.05487 4.08907 4.15787 4.19231 4.26125 4.29574 4.36481 4.39938 4.46859 4.50322 4.57256 4.60727 4.67684 4.71152 4.78114 4.81598 4.8858 4.92065 4.99054 5.02553 5.09563 5.13061 5.20078 5.2359 5.30623 5.34141 5.41186 5.44713 5.51774 5.55306 5.6238 5.6592 5.73008 5.76556 5.83692 5.87213 5.94333 5.97892 6.05041 6.08592 6.15738 6.19315 6.26475 6.30059 6.37234 6.40825 6.48018 6.51613 6.58818 6.62423 6.69642 6.73256 6.80491 6.8411 6.91359 6.94988 7 3.09623 3.16304 3.2299 3.297 3.33043 3.39757 3.43117 3.49844 3.53212 3.59957 3.63328 3.70085 3.73467 3.80238 3.83626 3.90412 3.93808 4.00621 4.04011 4.10826 4.14236 4.21068 4.24483 4.31331 4.34752 4.41611 4.45044 4.51926 4.55357 4.62245 4.65693 4.72613 4.76051 4.82969 4.86432 4.93369 4.96836 5.03784 5.07262 5.14233 5.17711 5.2469 5.28183 5.35188 5.38678 5.45688 5.49196 5.56223 5.59738 5.66812 5.70302 5.7736 5.80891 5.87964 5.91502 5.9859 6.02138 6.09243 6.12797 6.19917 6.2348 6.30616 6.34187 6.41339 6.44918 6.52087 6.55674 6.62864 6.66453 6.73655 6.77258 6.84475 6.88086 6.95319 6.98939 7 3.78794 3.85475 3.92164 3.98863 4.02216 4.08939 4.12289 4.19016 4.22383 4.29123 4.32497 4.39261 4.42634 4.49403 4.52791 4.59582 4.6297 4.69767 4.7317 4.79982 4.83392 4.90218 4.93635 5.00485 5.039 5.10757 5.14187 5.2107 5.24496 5.31381 5.34827 5.41667 5.4518 5.52101 5.55555 5.62484 5.65952 5.72897 5.76372 5.83331 5.86814 5.93793 5.97279 6.0427 6.07767 6.14772 6.18277 6.25347 6.2881 6.35847 6.39367 6.46424 6.49946 6.57012 6.60548 6.6763 6.71174 6.78271 6.81823 6.88943 6.92496 6.99624 7 4.67977 4.74657 4.81343 4.88041 4.91393 4.98107 5.01463 5.08187 5.11552 5.18296 5.21662 5.28413 5.31792 5.38565 5.41942 5.4872 5.52112 5.58962 5.62303 5.6911 5.72515 5.79334 5.82747 5.8958 5.93 5.99846 6.03273 6.10134 6.13568 6.20442 6.23883 6.30772 6.34219 6.41122 6.44577 6.51494 6.54956 6.61887 6.65356 6.72301 6.75777 6.82736 6.8622 6.93194 6.96684 7 5.93671 6.00375 6.07041 6.13742 6.17095 6.2381 6.27171 6.33932 6.37269 6.44016 6.47389 6.54148 6.57531 6.64306 6.67696 6.74484 6.77882 6.84688 6.88091 6.9491 6.98323 7 
</DataArray>
<DataArray type="Float32" Name="pressure" NumberOfComponents="1" format="ascii" >
-385.484 -382.569 -380.282 -378.575 -377.39 -376.656 -376.284 -376.146 -376.092 -376.044 -376.009 -375.997 -383.408 -382.504 -381.614 -380.736 -380.084 -379.442 -378.804 -378.176 -377.552 -376.938 -376.329 -375.73 -375.136 -374.55 -373.968 -373.396 -372.828 -372.269 -371.713 -371.167 -370.626 -370.093 -369.566 -369.047 -368.532 -368.027 -367.527 -367.038 -366.553 -366.076 -365.603 -365.138 -364.677 -364.225 -363.778 -363.339 -362.905 -362.481 -362.062 -361.65 -361.243 -360.846 -360.452 -360.068 -359.688 -359.318 -358.951 -358.592 -358.238 -357.893 -357.553 -357.221 -356.893 -356.574 -356.259 -355.953 -355.651 -355.358 -355.07 -354.79 -354.515 -354.248 -353.985 -353.731 -353.481 -353.241 -353.005 -352.778 -352.555 -352.34 -352.13 -351.928 -351.73 -351.54 -351.356 -351.18 -351.008 -350.845 -350.686 -350.535 -350.389 -350.252 -350.118 -349.993 -349.872 -349.759 -349.651 -349.551 -349.456 -349.369 -349.287 -349.214 -349.145 -349.084 -349.027 -348.979 -348.935 -348.899 -348.868 -348.845 -348.827 -348.817 -380.849 -380.006 -379.176 -378.359 -377.754 -377.159 -376.567 -375.984 -375.406 -374.837 -374.272 -373.719 -373.17 -372.628 -372.09 -371.562 -371.039 -370.525 -370.016 -369.516 -369.021 -368.535 -368.053 -367.581 -367.113 -366.656 -366.202 -365.756 -365.315 -364.883 -364.455 -364.035 -363.62 -363.214 -362.812 -362.419 -362.031 -361.652 -361.278 -360.911 -360.549 -360.197 -359.848 -359.509 -359.174 -358.849 -358.529 -358.217 -357.909 -357.61 -357.315 -357.028 -356.745 -356.472 -356.203 -355.942 -355.686 -355.438 -355.195 -354.961 -354.731 -354.51 -354.293 -354.084 -353.881 -353.686 -353.495 -353.313 -353.135 -352.965 -352.8 -352.644 -352.492 -352.348 -352.209 -352.079 -351.952 -351.835 -351.721 -351.616 -351.515 -351.423 -351.335 -351.256 -351.181 -351.114 -351.053 -350.999 -350.951 -350.911 -350.875 -350.849 -350.827 -350.812 -350.802 -350.8 -378.904 -378.139 -377.39 -376.653 -376.105 -375.566 -375.031 -374.508 -373.989 -373.477 -372.97 -372.472 -371.978 -371.493 -371.013 -370.542 -370.075 -369.618 -369.166 -368.724 -368.285 -367.854 -367.428 -367.012 -366.601 -366.198 -365.799 -365.411 -365.026 -364.65 -364.279 -363.917 -363.558 -363.208 -362.863 -362.528 -362.197 -361.874 -361.555 -361.245 -360.94 -360.643 -360.351 -360.067 -359.788 -359.517 -359.251 -358.993 -358.74 -358.495 -358.255 -358.024 -357.797 -357.579 -357.365 -357.16 -356.96 -356.768 -356.58 -356.402 -356.227 -356.063 -355.904 -355.751 -355.603 -355.464 -355.329 -355.203 -355.081 -354.968 -354.86 -354.76 -354.664 -354.578 -354.496 -354.422 -354.353 -354.293 -354.236 -354.188 -354.145 -354.11 -354.079 -354.057 -354.039 -354.031 -377.519 -376.845 -376.184 -375.534 -375.052 -374.581 -374.113 -373.654 -373.2 -372.755 -372.314 -371.885 -371.46 -371.042 -370.63 -370.226 -369.827 -369.437 -369.052 -368.676 -368.304 -367.941 -367.583 -367.234 -366.889 -366.553 -366.221 -365.898 -365.58 -365.271 -364.966 -364.67 -364.38 -364.098 -363.82 -363.552 -363.288 -363.034 -362.785 -362.543 -362.306 -362.079 -361.856 -361.642 -361.432 -361.231 -361.035 -360.847 -360.664 -360.49 -360.32 -360.16 -360.004 -359.856 -359.713 -359.578 -359.447 -359.326 -359.209 -359.101 -358.997 -358.902 -358.811 -358.729 -358.652 -358.583 -358.519 -358.464 -358.413 -358.371 -358.333 -358.303 -358.278 -358.261 -358.248 -358.245 -376.634 -376.07 -375.517 -374.976 -374.576 -374.186 -373.801 -373.425 -373.054 -372.692 -372.334 -371.985 -371.641 -371.309 -370.981 -370.66 -370.344 -370.037 -369.735 -369.441 -369.152 -368.872 -368.598 -368.331 -368.07 -367.818 -367.571 -367.331 -367.096 -366.87 -366.65 -366.438 -366.23 -366.03 -365.835 -365.65 -365.468 -365.295 -365.126 -364.966 -364.811 -364.664 -364.521 -364.387 -364.258 -364.137 -364.021 -363.915 -363.812 -363.719 -363.63 -363.55 -363.475 -363.409 -363.347 -363.294 -363.246 -363.207 -363.172 -363.146 -363.124 -363.112 -363.104 -376.18 -375.761 -375.354 -374.96 -374.671 -374.391 -374.117 -373.852 -373.592 -373.34 -373.092 -372.854 -372.62 -372.395 -372.175 -371.965 -371.759 -371.561 -371.37 -371.187 -371.008 -370.839 -370.674 -370.518 -370.366 -370.224 -370.086 -369.957 -369.833 -369.718 -369.607 -369.505 -369.407 -369.319 -369.235 -369.16 -369.09 -369.028 -368.972 -368.924 -368.881 -368.847 -368.818 -368.798 -368.782 -368.776 -376.073 -375.874 -375.686 -375.511 -375.387 -375.272 -375.161 -375.06 -374.964 -374.877 -374.795 -374.721 -374.652 -374.593 -374.538 -374.494 -374.454 -374.423 -374.397 -374.379 -374.367 -374.364 
</DataArray>
<DataArray type="Float32" Name="axial_flux" NumberOfComponents="1" format="ascii" >
-2.31036e-10 -1.84552e-10 -1.41178e-10 -1.01666e-10 -6.66692e-11 -3.71676e-11 -1.49847e-11 -3.80831e-12 -2.94191e-12 -1.89579e-12 -6.66168e-13 -2.47518e-14 -4.52809e-11 -4.46496e-11 -4.40207e-11 -4.33931e-11 -4.29229e-11 -4.24539e-11 -4.19854e-11 -4.15188e-11 -4.10528e-11 -4.05877e-11 -4.01236e-11 -3.96613e-11 -3.91996e-11 -3.87383e-11 -3.82773e-11 -3.78184e-11 -3.73603e-11 -3.69017e-11 -3.64437e-11 -3.59868e-11 -3.55305e-11 -3.50748e-11 -3.462e-11 -3.41663e-11 -3.37125e-11 -3.32602e-11 -3.28082e-11 -3.23597e-11 -3.19118e-11 -3.14631e-11 -3.10148e-11 -3.05659e-11 -3.01176e-11 -2.96704e-11 -2.92234e-11 -2.8777e-11 -2.83314e-11 -2.78879e-11 -2.74444e-11 -2.70005e-11 -2.65574e-11 -2.61151e-11 -2.56727e-11 -2.52313e-11 -2.47906e-11 -2.43503e-11 -2.39099e-11 -2.34702e-11 -2.30312e-11 -2.25932e-11 -2.2155e-11 -2.17177e-11 -2.1281e-11 -2.08443e-11 -2.04077e-11 -1.99717e-11 -1.95362e-11 -1.91026e-11 -1.8669e-11 -1.82351e-11 -1.78019e-11 -1.73686e-11 -1.69352e-11 -1.65024e-11 -1.60697e-11 -1.56374e-11 -1.5207e-11 -1.47768e-11 -1.43457e-11 -1.39151e-11 -1.34846e-11 -1.30544e-11 -1.26241e-11 -1.21941e-11 -1.1765e-11 -1.13363e-11 -1.09074e-11 -1.04791e-11 -1.0051e-11 -9.62298e-12 -9.19544e-12 -8.76827e-12 -8.34059e-12 -7.91343e-12 -7.48652e-12 -7.05924e-12 -6.63189e-12 -6.20507e-12 -5.77853e-12 -5.35193e-12 -4.92545e-12 -4.50108e-12 -4.07647e-12 -3.64993e-12 -3.22418e-12 -2.79881e-12 -2.37286e-12 -1.9487e-12 -1.52446e-12 -1.09843e-12 -6.72582e-13 -2.65339e-13 -4.21794e-11 -4.15526e-11 -4.09278e-11 -4.03045e-11 -3.98388e-11 -3.93744e-11 -3.89095e-11 -3.84455e-11 -3.79818e-11 -3.75192e-11 -3.70573e-11 -3.65981e-11 -3.61392e-11 -3.56798e-11 -3.5221e-11 -3.47631e-11 -3.43057e-11 -3.38493e-11 -3.33937e-11 -3.29395e-11 -3.24853e-11 -3.20319e-11 -3.15788e-11 -3.11266e-11 -3.06755e-11 -3.02264e-11 -2.97772e-11 -2.93281e-11 -2.88798e-11 -2.84319e-11 -2.7984e-11 -2.75368e-11 -2.70902e-11 -2.66444e-11 -2.61987e-11 -2.57536e-11 -2.53091e-11 -2.48664e-11 -2.44239e-11 -2.39809e-11 -2.35383e-11 -2.30971e-11 -2.26561e-11 -2.22151e-11 -2.17752e-11 -2.13379e-11 -2.09002e-11 -2.0461e-11 -2.00232e-11 -1.95869e-11 -1.91498e-11 -1.87121e-11 -1.82748e-11 -1.78384e-11 -1.74022e-11 -1.69663e-11 -1.65307e-11 -1.60954e-11 -1.56604e-11 -1.52257e-11 -1.47912e-11 -1.43578e-11 -1.39247e-11 -1.34913e-11 -1.30585e-11 -1.26259e-11 -1.2193e-11 -1.17606e-11 -1.13287e-11 -1.08969e-11 -1.04667e-11 -1.00371e-11 -9.60617e-12 -9.17532e-12 -8.74514e-12 -8.3151e-12 -7.88456e-12 -7.45422e-12 -7.02421e-12 -6.59544e-12 -6.16655e-12 -5.73685e-12 -5.3076e-12 -4.87842e-12 -4.44892e-12 -4.0196e-12 -3.59049e-12 -3.16165e-12 -2.73344e-12 -2.30667e-12 -1.87921e-12 -1.45202e-12 -1.02492e-12 -5.9609e-13 -1.67973e-13 -1.28963e-14 -3.83253e-11 -3.77025e-11 -3.70835e-11 -3.64655e-11 -3.60009e-11 -3.55373e-11 -3.50742e-11 -3.46141e-11 -3.41546e-11 -3.36941e-11 -3.3234e-11 -3.2775e-11 -3.23165e-11 -3.18587e-11 -3.14014e-11 -3.09449e-11 -3.04889e-11 -3.00338e-11 -2.95802e-11 -2.91285e-11 -2.8675e-11 -2.82211e-11 -2.77688e-11 -2.73177e-11 -2.6867e-11 -2.64165e-11 -2.59667e-11 -2.55188e-11 -2.50709e-11 -2.46235e-11 -2.41771e-11 -2.37306e-11 -2.32838e-11 -2.28376e-11 -2.23917e-11 -2.19487e-11 -2.15062e-11 -2.10621e-11 -2.06181e-11 -2.01754e-11 -1.97329e-11 -1.9291e-11 -1.88498e-11 -1.84086e-11 -1.79674e-11 -1.75266e-11 -1.70861e-11 -1.66464e-11 -1.62068e-11 -1.57675e-11 -1.53286e-11 -1.48899e-11 -1.44511e-11 -1.4013e-11 -1.35751e-11 -1.31377e-11 -1.27006e-11 -1.22633e-11 -1.18263e-11 -1.139e-11 -1.09537e-11 -1.05221e-11 -1.00907e-11 -9.65492e-12 -9.22052e-12 -8.78667e-12 -8.35178e-12 -7.91708e-12 -7.48318e-12 -7.04929e-12 -6.61474e-12 -6.18021e-12 -5.74589e-12 -5.31238e-12 -4.8787e-12 -4.44452e-12 -4.01061e-12 -3.57694e-12 -3.14316e-12 -2.70955e-12 -2.27604e-12 -1.84306e-12 -1.41007e-12 -9.76718e-13 -5.43343e-13 -1.99402e-13 -3.38153e-11 -3.31959e-11 -3.25784e-11 -3.19612e-11 -3.14987e-11 -3.10371e-11 -3.05757e-11 -3.01149e-11 -2.96545e-11 -2.91948e-11 -2.87358e-11 -2.82793e-11 -2.78231e-11 -2.73659e-11 -2.69093e-11 -2.64533e-11 -2.59978e-11 -2.5543e-11 -2.50889e-11 -2.46359e-11 -2.41829e-11 -2.37304e-11 -2.3278e-11 -2.28262e-11 -2.23749e-11 -2.19242e-11 -2.14736e-11 -2.1024e-11 -2.05752e-11 -2.01266e-11 -1.9678e-11 -1.92303e-11 -1.87841e-11 -1.83378e-11 -1.78904e-11 -1.74437e-11 -1.69974e-11 -1.65536e-11 -1.61099e-11 -1.56647e-11 -1.52202e-11 -1.47775e-11 -1.43347e-11 -1.38912e-11 -1.34484e-11 -1.30053e-11 -1.25619e-11 -1.21192e-11 -1.16766e-11 -1.12342e-11 -1.07933e-11 -1.03528e-11 -9.9115e-12 -9.47026e-12 -9.02884e-12 -8.58772e-12 -8.14679e-12 -7.70599e-12 -7.26546e-12 -6.82526e-12 -6.38487e-12 -5.94478e-12 -5.50489e-12 -5.06491e-12 -4.62487e-12 -4.18546e-12 -3.74628e-12 -3.30669e-12 -2.86724e-12 -2.42823e-12 -1.9891e-12 -1.54984e-12 -1.11066e-12 -6.71519e-13 -2.32247e-13 -4.28883e-14 -2.83236e-11 -2.77057e-11 -2.70885e-11 -2.64715e-11 -2.60092e-11 -2.55477e-11 -2.50869e-11 -2.4627e-11 -2.41679e-11 -2.37093e-11 -2.32502e-11 -2.27922e-11 -2.23349e-11 -2.18811e-11 -2.14271e-11 -2.09704e-11 -2.05144e-11 -2.00596e-11 -1.96051e-11 -1.91504e-11 -1.86957e-11 -1.82434e-11 -1.77914e-11 -1.73388e-11 -1.68868e-11 -1.64376e-11 -1.59883e-11 -1.55364e-11 -1.50853e-11 -1.46362e-11 -1.41871e-11 -1.37395e-11 -1.32892e-11 -1.28374e-11 -1.23887e-11 -1.19409e-11 -1.14929e-11 -1.10437e-11 -1.05947e-11 -1.01461e-11 -9.6975e-12 -9.2504e-12 -8.80365e-12 -8.35587e-12 -7.90807e-12 -7.46057e-12 -7.01347e-12 -6.56712e-12 -6.12263e-12 -5.67783e-12 -5.23109e-12 -4.78437e-12 -4.33788e-12 -3.89213e-12 -3.44647e-12 -3.00072e-12 -2.55474e-12 -2.10914e-12 -1.66358e-12 -1.21768e-12 -7.72103e-13 -3.27534e-13 -1.56975e-14 -2.10063e-11 -2.03882e-11 -1.97711e-11 -1.91545e-11 -1.86921e-11 -1.8231e-11 -1.77703e-11 -1.73105e-11 -1.68507e-11 -1.63908e-11 -1.59314e-11 -1.54721e-11 -1.50128e-11 -1.45539e-11 -1.40956e-11 -1.36378e-11 -1.31799e-11 -1.27224e-11 -1.22673e-11 -1.18127e-11 -1.13559e-11 -1.08993e-11 -1.04427e-11 -9.98648e-12 -9.53046e-12 -9.07503e-12 -8.61967e-12 -8.16407e-12 -7.70888e-12 -7.25386e-12 -6.79881e-12 -6.34401e-12 -5.8892e-12 -5.43464e-12 -4.9801e-12 -4.52566e-12 -4.07131e-12 -3.61691e-12 -3.16268e-12 -2.70873e-12 -2.25487e-12 -1.80096e-12 -1.34686e-12 -8.92773e-13 -4.38744e-13 -1.43708e-13 -1.00005e-11 -9.38259e-12 -8.76617e-12 -8.14974e-12 -7.68699e-12 -7.22537e-12 -6.76377e-12 -6.30144e-12 -5.8405e-12 -5.38166e-12 -4.92154e-12 -4.45938e-12 -3.99716e-12 -3.5353e-12 -3.07351e-12 -2.6128e-12 -2.15214e-12 -1.69024e-12 -1.2284e-12 -7.66759e-13 -3.05114e-13 -7.56091e-14 
</DataArray>
<DataArray type="Float32" Name="radial_flux" NumberOfComponents="1" format="ascii" >
-4.4557e-13 -4.41669e-13 -4.38693e-13 -4.36439e-13 -4.34895e-13 -4.33905e-13 -4.33387e-13 -4.3324e-13 -4.3316e-13 -6.12958e-13 -6.16665e-13 -2.47518e-14 -3.16311e-13 -3.14962e-13 -3.13925e-13 -3.13717e-13 -1.56431e-13 -3.12552e-13 -1.55989e-13 -3.10631e-13 -1.554e-13 -3.09684e-13 -1.54408e-13 -3.07834e-13 -1.53919e-13 -3.0733e-13 -1.53692e-13 -3.05213e-13 -1.52936e-13 -3.05579e-13 -1.52504e-13 -3.04359e-13 -1.51982e-13 -3.03679e-13 -1.51068e-13 -3.02714e-13 -1.51019e-13 -3.01274e-13 -1.50732e-13 -2.97808e-13 -1.50132e-13 -2.98574e-13 -1.49674e-13 -2.99217e-13 -1.49092e-13 -2.98088e-13 -1.48962e-13 -2.97417e-13 -1.48165e-13 -2.9536e-13 -1.48157e-13 -2.95741e-13 -1.47357e-13 -2.94939e-13 -1.47401e-13 -2.94088e-13 -1.4655e-13 -2.93742e-13 -1.4667e-13 -2.93027e-13 -1.45963e-13 -2.92102e-13 -1.46062e-13 -2.91185e-13 -1.45579e-13 -2.9113e-13 -1.45466e-13 -2.90528e-13 -1.44992e-13 -2.88608e-13 -1.44922e-13 -2.89003e-13 -1.44236e-13 -2.89053e-13 -1.44348e-13 -2.88464e-13 -1.44197e-13 -2.88074e-13 -1.42377e-13 -2.87794e-13 -1.43362e-13 -2.87177e-13 -1.43357e-13 -2.86872e-13 -1.43399e-13 -2.86604e-13 -1.42481e-13 -2.86186e-13 -1.42749e-13 -2.85503e-13 -1.42594e-13 -2.85469e-13 -1.42073e-13 -2.85096e-13 -1.4258e-13 -2.84582e-13 -1.42325e-13 -2.84956e-13 -1.42397e-13 -2.84426e-13 -1.42106e-13 -2.84493e-13 -1.41986e-13 -2.82393e-13 -1.42215e-13 -2.84323e-13 -1.4143e-13 -2.83938e-13 -1.42007e-13 -2.82154e-13 -1.4209e-13 -2.83942e-13 -1.41903e-13 -2.65339e-13 -3.13749e-13 -3.13023e-13 -3.11775e-13 -3.11547e-13 -1.54166e-13 -3.10245e-13 -1.54674e-13 -3.09316e-13 -1.54368e-13 -3.08224e-13 -1.53663e-13 -3.05546e-13 -1.53333e-13 -3.0607e-13 -1.5276e-13 -3.05154e-13 -1.52261e-13 -3.04157e-13 -1.51404e-13 -3.02829e-13 -1.51336e-13 -3.0207e-13 -1.50982e-13 -3.01205e-13 -1.49941e-13 -2.99134e-13 -1.50063e-13 -2.99058e-13 -1.49253e-13 -2.98621e-13 -1.49283e-13 -2.97978e-13 -1.48589e-13 -2.97211e-13 -1.48472e-13 -2.9661e-13 -1.47915e-13 -2.9478e-13 -1.47772e-13 -2.95219e-13 -1.47387e-13 -2.93786e-13 -1.47169e-13 -2.93904e-13 -1.45903e-13 -2.91397e-13 -1.46391e-13 -2.92805e-13 -1.45004e-13 -2.91225e-13 -1.45931e-13 -2.9169e-13 -1.45696e-13 -2.90713e-13 -1.45395e-13 -2.90537e-13 -1.45116e-13 -2.90121e-13 -1.44946e-13 -2.89732e-13 -1.4473e-13 -2.88646e-13 -1.4453e-13 -2.888e-13 -1.44024e-13 -2.88616e-13 -1.44235e-13 -2.88141e-13 -1.43818e-13 -2.87962e-13 -1.42251e-13 -2.87293e-13 -1.43684e-13 -2.8717e-13 -1.43005e-13 -2.87034e-13 -1.43506e-13 -2.86837e-13 -1.4317e-13 -2.85605e-13 -1.43277e-13 -2.86425e-13 -1.4283e-13 -2.86351e-13 -1.43142e-13 -2.86184e-13 -1.4293e-13 -2.85902e-13 -1.42311e-13 -2.84462e-13 -1.42994e-13 -2.84201e-13 -1.42895e-13 -2.85935e-13 -1.42181e-13 -1.28963e-14 -3.11857e-13 -3.10942e-13 -3.08061e-13 -3.09942e-13 -1.54677e-13 -3.08912e-13 -1.5418e-13 -3.05887e-13 -1.53696e-13 -3.06791e-13 -1.5324e-13 -3.05829e-13 -1.52672e-13 -3.05067e-13 -1.52298e-13 -3.0416e-13 -1.5184e-13 -3.03306e-13 -1.50285e-13 -3.01414e-13 -1.52093e-13 -3.01775e-13 -1.50541e-13 -3.00493e-13 -1.50285e-13 -3.00216e-13 -1.49558e-13 -2.98362e-13 -1.49489e-13 -2.9796e-13 -1.48425e-13 -2.9802e-13 -1.48816e-13 -2.97388e-13 -1.4847e-13 -2.94533e-13 -1.48002e-13 -2.96131e-13 -1.47803e-13 -2.9491e-13 -1.47643e-13 -2.94187e-13 -1.47029e-13 -2.94218e-13 -1.46931e-13 -2.93861e-13 -1.46639e-13 -2.9306e-13 -1.46558e-13 -2.92809e-13 -1.46086e-13 -2.92582e-13 -1.46196e-13 -2.91911e-13 -1.45943e-13 -2.91487e-13 -1.45677e-13 -2.91553e-13 -1.45463e-13 -2.90809e-13 -1.45526e-13 -2.86111e-13 -1.45244e-13 -2.90551e-13 -1.43851e-13 -2.89999e-13 -1.4489e-13 -2.89808e-13 -1.44088e-13 -2.89802e-13 -1.44755e-13 -2.89765e-13 -1.44564e-13 -2.8894e-13 -1.44744e-13 -2.89429e-13 -1.44487e-13 -2.89177e-13 -1.44606e-13 -2.89004e-13 -1.44507e-13 -2.8847e-13 -1.44518e-13 -2.88836e-13 -1.44538e-13 -1.99402e-13 -3.10333e-13 -3.09108e-13 -3.08353e-13 -3.08824e-13 -1.53741e-13 -3.07781e-13 -1.53693e-13 -3.07082e-13 -1.53342e-13 -3.06274e-13 -1.52717e-13 -3.03799e-13 -1.52481e-13 -3.04627e-13 -1.51984e-13 -3.04007e-13 -1.51549e-13 -3.03246e-13 -1.50843e-13 -3.02167e-13 -1.50805e-13 -3.01758e-13 -1.50625e-13 -3.01102e-13 -1.50221e-13 -3.00486e-13 -1.50114e-13 -2.99468e-13 -1.49403e-13 -2.99133e-13 -1.49518e-13 -2.98189e-13 -1.47978e-13 -2.98338e-13 -1.49039e-13 -2.97699e-13 -1.4862e-13 -2.9515e-13 -1.48556e-13 -2.96599e-13 -1.4796e-13 -2.94735e-13 -1.48081e-13 -2.95369e-13 -1.47472e-13 -2.95611e-13 -1.47727e-13 -2.95048e-13 -1.47471e-13 -2.94951e-13 -1.45998e-13 -2.94448e-13 -1.46881e-13 -2.94354e-13 -1.47071e-13 -2.9405e-13 -1.4688e-13 -2.93914e-13 -1.46622e-13 -2.93579e-13 -1.46809e-13 -2.93279e-13 -1.46614e-13 -2.93368e-13 -1.46667e-13 -2.92741e-13 -1.46442e-13 -2.93147e-13 -1.46302e-13 -2.92711e-13 -1.46419e-13 -2.92841e-13 -1.46338e-13 -2.92802e-13 -1.4647e-13 -4.28883e-14 -3.09205e-13 -3.08649e-13 -3.08613e-13 -3.08334e-13 -1.53983e-13 -3.07576e-13 -1.53181e-13 -3.06691e-13 -1.5247e-13 -3.06123e-13 -1.52934e-13 -3.05093e-13 -1.52209e-13 -3.01615e-13 -1.5235e-13 -3.04362e-13 -1.51644e-13 -3.03125e-13 -1.51431e-13 -3.03212e-13 -1.51477e-13 -3.00843e-13 -1.5118e-13 -3.01405e-13 -1.50584e-13 -2.98634e-13 -1.50677e-13 -3.01176e-13 -1.49975e-13 -2.99061e-13 -1.50097e-13 -2.97533e-13 -1.52719e-13 -2.99094e-13 -1.49617e-13 -2.98163e-13 -1.49823e-13 -2.99439e-13 -1.49509e-13 -2.99095e-13 -1.49513e-13 -2.97586e-13 -1.4916e-13 -2.9862e-13 -1.49179e-13 -2.98324e-13 -1.48771e-13 -2.97578e-13 -1.46918e-13 -2.97879e-13 -1.4886e-13 -2.97859e-13 -1.48633e-13 -2.97116e-13 -1.48552e-13 -2.97192e-13 -1.48793e-13 -2.96801e-13 -1.48761e-13 -2.97144e-13 -1.48429e-13 -2.96139e-13 -1.56975e-14 -3.09324e-13 -3.0877e-13 -3.08332e-13 -3.08313e-13 -1.54041e-13 -3.07071e-13 -1.53626e-13 -3.06221e-13 -1.53528e-13 -3.06398e-13 -1.52997e-13 -3.06281e-13 -1.53004e-13 -3.05934e-13 -1.5232e-13 -3.05551e-13 -1.52344e-13 -3.05126e-13 -1.49944e-13 -3.04668e-13 -1.52139e-13 -3.04442e-13 -1.52196e-13 -3.04022e-13 -1.52e-13 -3.03428e-13 -1.51928e-13 -3.03673e-13 -1.51519e-13 -3.03498e-13 -1.51549e-13 -3.03251e-13 -1.51563e-13 -3.03001e-13 -1.51537e-13 -3.02904e-13 -1.51445e-13 -3.02953e-13 -1.51276e-13 -3.02671e-13 -1.51194e-13 -3.02713e-13 -1.51387e-13 -3.027e-13 -1.51328e-13 -1.43708e-13 -3.09287e-13 -3.08586e-13 -3.07841e-13 -3.08587e-13 -1.54166e-13 -3.0745e-13 -1.54146e-13 -3.08185e-13 -1.52758e-13 -3.06087e-13 -1.54025e-13 -3.08136e-13 -1.54088e-13 -3.07775e-13 -1.54007e-13 -3.0671e-13 -1.5395e-13 -3.07945e-13 -1.53893e-13 -3.07749e-13 -1.53896e-13 -7.56091e-14 
</DataArray>
<DataArray type="Float32" Name="net_flux" NumberOfComponents="1" format="ascii" >