<?xml version="1.0"?><VTKFile type="PolyData" version="0.1" byte_order="LittleEndian">
<PolyData>
<Piece NumberOfLines="27555" NumberOfPoints="27556">
<CellData doubles=" CellData">
<DataArray type="Float32" Name="radius" NumberOfComponents="1" format="ascii" >
0.0675 0.0675 0.0675 0.0675 0.0675 0.0675 0.0675 0.0675 0.0675 0.0675 0.0675 0.0675 0.0675 0.0675 0.0675 0.0675 0.0675 0.0675 0.0675 0.0675 0.0675 0.0675 0.0675 0.0675 0.0675 0.0675 0.0675 0.0675 0.0675 0.0675 0.0675 0.0675 0.0675 0.0675 0.0675 0.0675 0.0675 0.0675 0.0675 0.0675 0.0675 0.0675 0.0675 0.0675 0.0675 0.0675 0.0675 0.0675 0.0675 0.0675 0.0675 0.0675 0.0675 0.0675 0.0675 0.0675 0.0675 0.0675 0.0675 0.0675 0.0675 0.0675 0.0675 0.0675 0.0675 0.0675 0.0675 0.0675 0.0675 0.0675 0.0675 0.0675 0.0675 0.0675 0.0675 0.0675 0.0675 0.0675 0.0675 0.0675 0.0675 0.0675 0.0675 0.0675 0.0675 0.0675 0.0675 0.0675 0.0675 0.0675 0.0675 0.0675 0.0675 0.0675 0.0675 0.0675 0.0675 0.0675 0.0675 0.0675 0.0675 0.0675 0.0675 0.0675 0.0675 0.0675 0.0675 0.0675 0.0675 0.0675 0.0675 0.0675 0.0675 0.0675 0.0675 0.0675 0.0675 0.0675 0.0675 0.0675 0.0675 0.0675 0.0675 0.0675 0.0675 0.0675 0.0675 0.0675 0.0675 0.0675 0.0675 0.0675 0.0675 0.0675 0.0675 0.0675 0.0675 0.0675 0.0675 0.0675 0.0675 0.0675 0.0675 0.0675 0.0675 0.0675 0.0675 0.0675 0.0675 0.0675 0.0675 0.0675 0.0675 0.0675 0.0675 0.0675 0.0675 0.0675 0.0675 0.0675 0.0675 0.0675 0.0675 0.0675 0.0675 0.0675 0.0675 0.0675 0.0675 0.0675 0.0675 0.0675 0.0675 0.0675 0.0675 0.0675 0.0675 0.0675 0.0675 0.0675 0.0675 0.0675 0.0675 0.0675 0.0675 0.0675 0.0675 0.0675 0.0675 0.0675 0.0675 0.0675 0.0675 0.0675 0.0675 0.0675 0.0675 0.0675 0.0675 0.0675 0.0675 0.0675 0.0675 0.0675 0.0675 0.0675 0.0675 0.0675 0.0675 0.0675 0.0675 0.0675 0.0675 0.0675 0.0675 0.0675 0.0675 0.0675 0.0675 0.0675 0.0675 0.0675 0.0675 0.0675 0.0675 0.0675 0.0675 0.0675 0.0675 0.0675 0.0675 0.0675 0.0675 0.0675 0.0675 0.0675 0.0675 0.0106 0.0106 0.0106 0.0106 0.0106 0.0106 0.0106 0.0106 0.0106 0.0106 0.0106 0.0106 0.0106 0.0106 0.0106 0.0106 0.0106 0.0106 0.0106 0.0106 0.0106 0.0106 0.0106 0.0106 0.0106 0.0106 0.0106 0.0106 0.0106 0.0106 0.0106 0.0106 0.0106 0.0106 0.0106 0.0106 0.0106 0.0106 0.0106 0.0106 0.0106 0.0106 0.0106 0.0106 0.0106 0.0106 0.0106 0.0106 0.0106 0.0106 0.0106 0.0106 0.0106 0.0106 0.0106 0.0106 0.0106 0.0106 0.0106 0.0106 0.0106 0.0106 0.0106 0.0106 0.0106 0.0106 0.0106 0.0106 0.0106 0.0106 0.0106 0.0106 0.0106 0.0106 0.0106 0.0106 0.0106 0.0106 0.0106 0.0106 0.0106 0.0106 0.0106 0.0106 0.0106 0.0106 0.0106 0.0106 0.0106 0.0106 0.0106 0.0106 0.0106 0.0106 0.0106 0.0106 0.0106 0.0106 0.0106 0.0106 0.0106 0.0106 0.0106 0.0106 0.0106 0.0106 0.0106 0.0106 0.0106 0.0106 0.0106 0.0106 0.0106 0.0106 0.0106 0.0106 0.0106 0.0106 0.0106 0.0106 0.0106 0.0106 0.0106 0.0106 0.0106 0.0106 0.0106 0.0106 0.0106 0.0106 0.0106 0.0106 0.0106 0.0106 0.0106 0.0106 0.0106 0.0106 0.0106 0.0106 0.0106 0.0106 0.0106 0.0106 0.0106 0.0106 0.0106 0.0106 0.0106 0.0106 0.0106 0.0106 0.0106 0.0106 0.0106 0.0106 0.0106 0.0106 0.0106 0.0106 0.0106 0.0106 0.0106 0.0106 0.0106 0.0106 0.0106 0.0106 0.0106 0.0106 0.0106 0.0106 0.0106 0.0106 0.0106 0.0106 0.0106 0.0106 0.0106 0.0106 0.0106 0.0106 0.0106 0.0106 0.0106 0.0106 0.0106 0.0106 0.0106 0.0106 0.0106 0.0106 0.0106 0.0106 0.0106 0.0106 0.0106 0.0106 0.0106 0.0106 0.0106 0.0106 0.0106 0.0106 0.0106 0.0106 0.0106 0.0106 0.0106 0.0106 0.0106 0.0106 0.0106 0.0106 0.0106 0.0106 0.0106 0.0106 0.0106 0.0106 0.0106 0.0106 0.0106 0.0106 0.0106 0.0106 0.0106 0.0106 0.0106 0.0106 0.0106 0.0106 0.0106 0.0106 0.0106 0.0106 0.0106 0.0106 0.0106 0.0106 0.0106 0.0106 0.0106 0.0106 0.0106 0.0106 0.0106 0.0106 0.0106 0.0106 0.0106 0.0106 0.0106 0.0106 0.0106 0.0106 0.0106 0.0106 0.017 0.017 0.017 0.017 0.017 0.017 0.0106 0.0106 0.0106 0.0106 0.0106 0.0106 0.0106 0.0106 0.017 0.017 0.017 0.017 0.017 0.017 0.017 0.0106 0.0106 0.0106 0.0106 0.0106 0.0106 0.0106 0.0106 0.0106 0.017 0.017 0.017 0.017 0.017 0.017 0.0106 0.0106 0.0106 0.0106 0.0106 0.0106 0.017 0.017 0.017 0.017 0.017 0.017 0.0106 0.0106 0.0106 0.0106 0.0106 0.0106 0.017 0.017 0.017 0.017 0.017 0.017 0.0106 0.0106 0.0106 0.0106 0.0106 0.0106 0.017 0.017 0.017 0.017 0.017 0.017 0.0106 0.0106 0.0106 0.0106 0.0106 0.0106 0.017 0.017 0.017 0.017 0.017 0.017 0.0106 0.0106 0.0106 0.0106 0.0106 0.0106 0.017 0.017 0.017 0.017 0.017 0.017 0.0106 0.0106 0.0106 0.0106 0.0106 0.0106 0.017 0.017 0.017 0.017 0.017 0.017 0.0106 0.0106 0.0106 0.0106 0.0106 0.0106 0.017 0.017 0.017 0.017 0.017 0.017 0.0106 0.0106 0.0106 0.0106 0.0106 0.0106 0.017 0.017 0.017 0.017 0.017 0.017 0.0106 0.0106 0.0106 0.0106 0.0106 0.0106 0.017 0.017 0.017 0.017 0.017 0.017 0.0106 0.0106 0.0106 0.0106 0.0106 0.0106 0.017 0.017 0.017 0.017 0.017 0.017 0.0106 0.0106 0.0106 0.0106 0.0106 0.0106 0.017 0.017 0.017 0.017 0.017 0.017 0.0106 0.0106 0.0106 0.0106 0.0106 0.0106 0.017 0.017 0.017 0.017 0.017 0.017 0.0106 0.0106 0.0106 0.0106 0.0106 0.0106 0.017 0.017 0.017 0.017 0.017 0.017 0.0106 0.0106 0.0106 0.0106 0.0106 0.0106 0.017 0.017 0.017 0.017 0.017 0.017 0.0106 0.0106 0.0106 0.0106 0.0106 0.0106 0.017 0.017 0.017 0.017 0.017 0.017 0.0106 0.0106 0.0106 0.0106 0.0106 0.0106 0.017 0.017 0.017 0.017 0.017 0.017 0.0106 0.0106 0.0106 0.0106 0.0106 0.0106 0.017 0.017 0.017 0.017 0.017 0.017 0.0106 0.0106 0.0106 0.0106 0.0106 0.0106 0.017 0.017 0.017 0.017 0.017 0.017 0.0106 0.0106 0.0106 0.0106 0.0106 0.0106 0.017 0.017 0.017 0.017 0.017 0.017 0.0106 0.0106 0.0106 0.0106 0.0106 0.0106 0.017 0.017 0.017 0.017 0.017 0.017 0.0106 0.0106 0.0106 0.0106 0.0106 0.0106 0.017 0.017 0.017 0.017 0.017 0.017 0.0106 0.0106 0.0106 0.0106 0.0106 0.0106 0.017 0.017 0.017 0.017 0.017 0.017 0.0106 0.0106 0.0106 0.0106 0.0106 0.0106 0.017 0.017 0.017 0.017 0.017 0.017 0.0106 0.0106 0.0106 0.0106 0.0106 0.0106 0.017 0.017 0.017 0.017 0.017 0.017 0.0106 0.0106 0.0106 0.0106 0.0106 0.0106 0.017 0.017 0.017 0.017 0.017 0.017 0.0106 0.0106 0.0106 0.0106 0.0106 0.0106 0.017 0.017 0.017 0.017 0.017 0.017 0.0106 0.0106 0.0106 0.0106 0.0106 0.0106 0.017 0.017 0.017 0.017 0.017 0.017 0.0106 0.0106 0.0106 0.0106 0.0106 0.0106 0.017 0.017 0.017 0.017 0.017 0.017 0.0106 0.0106 0.0106 0.0106 0.0106 0.0106 0.017 0.017 0.017 0.017 0.017 0.017 0.0106 0.0106 0.0106 0.0106 0.0106 0.0106 0.017 0.017 0.017 0.017 0.017 0.017 0.0106 0.0106 0.0106 0.0106 0.0106 0.0106 0.017 0.017 0.017 0.017 0.017 0.017 0.0106 0.0106 0.0106 0.0106 0.0106 0.0106 0.017 0.017 0.017 0.017 0.017 0.017 0.0106 0.0106 0.0106 0.0106 0.0106 0.0106 0.017 0.017 0.017 0.017 0.017 0.017 0.0106 0.0106 0.0106 0.0106 0.0106 0.0106 0.017 0.017 0.017 0.017 0.017 0.017 0.0106 0.0106 0.0106 0.0106 0.0106 0.0106 0.017 0.017 0.017 0.017 0.017 0.017 0.0106 0.0106 0.0106 0.0106 0.0106 0.0106 0.017 0.017 0.017 0.017 0.017 0.017 0.0106 0.0106 0.0106 0.0106 0.0106 0.0106 0.017 0.017 0.017 0.017 0.017 0.017 0.0106 0.0106 0.0106 0.0106 0.0106 0.0106 0.017 0.017 0.017 0.017 0.017 0.017 0.0106 0.0106 0.0106 0.0106 0.0106 0.0106 0.017 0.017 0.017 0.017 0.017 0.017 0.0106 0.0106 0.0106 0.0106 0.0106 0.0106 0.017 0.017 0.017 0.017 0.017 0.017 0.0106 0.0106 0.0106 0.0106 0.0106 0.0106 0.017 0.017 0.017 0.017 0.017 0.017 0.0106 0.0106 0.0106 0.0106 0.0106 0.0106 0.017 0.017 0.017 0.017 0.017 0.017 0.0106 0.0106 0.0106 0.0106 0.0106 0.0106 0.017 0.017 0.017 0.017 0.017 0.017 0.0106 0.0106 0.0106 0.0106 0.0106 0.0106 0.017 0.017 0.017 0.017 0.017 0.017 0.0106 0.0106 0.0106 0.0106 0.0106 0.0106 0.017 0.017 0.017 0.017 0.017 0.017 0.0106 0.0106 0.0106 0.0106 0.0106 0.0106 0.017 0.017 0.017 0.017 0.017 0.017 0.0106 0.0106 0.0106 0.0106 0.0106 0.0106 0.017 0.017 0.017 0.017 0.017 0.017 0.0106 0.0106 0.0106 0.0106 0.0106 0.0106 0.017 0.017 0.017 0.017 0.017 0.017 0.0106 0.0106 0.0106 0.0106 0.0106 0.0106 0.017 0.017 0.017 0.017 0.017 0.017 0.0106 0.0106 0.0106 0.0106 0.0106 0.0106 0.017 0.017 0.017 0.017 0.017 0.017 0.0106 0.0106 0.0106 0.0106 0.0106 0.0106 0.017 0.017 0.017 0.017 0.017 0.017 0.0106 0.0106 0.0106 0.0106 0.0106 0.0106 0.017 0.017 0.017 0.017 0.017 0.017 0.0106 0.0106 0.0106 0.0106 0.0106 0.0106 0.017 0.017 0.017 0.017 0.017 0.017 0.0106 0.0106 0.0106 0.0106 0.0106 0.0106 0.017 0.017 0.017 0.017 0.017 0.017 0.0106 0.0106 0.0106 0.0106 0.0106 0.0106 0.017 0.017 0.017 0.017 0.017 0.017 0.0106 0.0106 0.0106 0.0106 0.0106 0.0106 0.017 0.017 0.017 0.017 0.017 0.017 0.0106 0.0106 0.0106 0.0106 0.0106 0.0106 0.017 0.017 0.017 0.017 0.017 0.017 0.0106 0.0106 0.0106 0.0106 0.0106 0.0106 0.017 0.017 0.017 0.017 0.017 0.017 0.0106 0.0106 0.0106 0.0106 0.0106 0.0106 0.017 0.017 0.017 0.017 0.017 0.017 0.0106 0.0106 0.0106 0.0106 0.0106 0.0106 0.017 0.017 0.017 0.017 0.017 0.017 0.0106 0.0106 0.0106 0.0106 0.0106 0.0106 0.017 0.017 0.017 0.017 0.017 0.017 0.0106 0.0106 0.0106 0.0106 0.0106 0.0106 0.017 0.017 0.017 0.017 0.017 0.017 0.0106 0.0106 0.0106 0.0106 0.0106 0.0106 0.017 0.017 0.017 0.017 0.017 0.017 0.0106 0.0106 0.0106 0.0106 0.0106 0.0106 0.017 0.017 0.017 0.017 0.017 0.017 0.0106 0.0106 0.0106 0.0106 0.0106 0.0106 0.017 0.017 0.017 0.017 0.017 0.017 0.0106 0.0106 0.0106 0.0106 0.0106 0.0106 0.017 0.017 0.017 0.017 0.017 0.017 0.0106 0.0106 0.0106 0.0106 0.0106 0.0106 0.017 0.017 0.017 0.017 0.017 0.017 0.0106 0.0106 0.0106 0.0106 0.0106 0.0106 0.017 0.017 0.017 0.017 0.017 0.017 0.0106 0.0106 0.0106 0.0106 0.0106 0.0106 0.017 0.017 0.017 0.017 0.017 0.017 0.0106 0.0106 0.0106 0.0106 0.0106 0.0106 0.017 0.017 0.017 0.017 0.017 0.017 0.0106 0.0106 0.0106 0.0106 0.0106 0.0106 0.017 0.017 0.017 0.017 0.017 0.017 0.0106 0.0106 0.0106 0.0106 0.0106 0.0106 0.017 0.017 0.017 0.017 0.017 0.017 0.0106 0.0106 0.0106 0.0106 0.0106 0.0106 0.017 0.017 0.017 0.017 0.017 0.017 0.0106 0.0106 0.0106 0.0106 0.0106 0.0106 0.017 0.017 0.017 0.017 0.017 0.017 0.0106 0.0106 0.0106 0.0106 0.0106 0.0106 0.017 0.017 0.017 0.017 0.017 0.017 0.0106 0.0106 0.0106 0.0106 0.0106 0.0106 0.017 0.017 0.017 0.017 0.017 0.017 0.0106 0.0106 0.0106 0.0106 0.0106 0.0106 0.017 0.017 0.017 0.017 0.017 0.017 0.0106 0.0106 0.0106 0.0106 0.0106 0.0106 0.017 0.017 0.017 0.017 0.017 0.017 0.0106 0.0106 0.0106 0.0106 0.0106 0.0106 0.017 0.017 0.017 0.017 0.017 0.017 0.0106 0.0106 0.0106 0.0106 0.0106 0.0106 0.017 0.017 0.017 0.017 0.017 0.017 0.0106 0.0106 0.0106 0.0106 0.0106 0.0106 0.017 0.017 0.017 0.017 0.017 0.017 0.0106 0.0106 0.0106 0.0106 0.0106 0.0106 0.017 0.017 0.017 0.017 0.017 0.017 0.0106 0.0106 0.0106 0.0106 0.0106 0.0106 0.017 0.017 0.017 0.017 0.017 0.017 0.0106 0.0106 0.0106 0.0106 0.0106 0.0106 0.017 0.017 0.017 0.017 0.017 0.017 0.0106 0.0106 0.0106 0.0106 0.0106 0.0106 0.017 0.017 0.017 0.017 0.017 0.017 0.0106 0.0106 0.0106 0.0106 0.0106 0.0106 0.017 0.017 0.017 0.017 0.017 0.017 0.0106 0.0106 0.0106 0.0106 0.0106 0.0106 0.017 0.017 0.017 0.017 0.017 0.017 0.0106 0.0106 0.0106 0.0106 0.0106 0.0106 0.017 0.017 0.017 0.017 0.017 0.017 0.0106 0.0106 0.0106 0.0106 0.0106 0.0106 0.017 0.017 0.017 0.017 0.017 0.017 0.0106 0.0106 0.0106 0.0106 0.0106 0.0106 0.017 0.017 0.017 0.017 0.017 0.017 0.0106 0.0106 0.0106 0.0106 0.0106 0.0106 0.017 0.017 0.017 0.017 0.017 0.017 0.0106 0.0106 0.0106 0.0106 0.0106 0.0106 0.017 0.017 0.017 0.017 0.017 0.017 0.0106 0.0106 0.0106 0.0106 0.0106 0.0106 0.017 0.017 0.017 0.017 0.017 0.017 0.0106 0.0106 0.0106 0.0106 0.0106 0.0106 0.017 0.017 0.017 0.017 0.017 0.017 0.0106 0.0106 0.0106 0.0106 0.0106 0.0106 0.017 0.017 0.017 0.017 0.017 0.017 0.0106 0.0106 0.0106 0.0106 0.0106 0.0106 0.017 0.017 0.017 0.017 0.017 0.017 0.0106 0.0106 0.0106 0.0106 0.0106 0.0106 0.017 0.017 0.017 0.017 0.017 0.017 0.0106 0.0106 0.0106 0.0106 0.0106 0.0106 0.017 0.017 0.017 0.017 0.017 0.017 0.0106 0.0106 0.0106 0.0106 0.0106 0.0106 0.017 0.017 0.017 0.017 0.017 0.017 0.0106 0.0106 0.0106 0.0106 0.0106 0.0106 0.017 0.017 0.017 0.017 0.017 0.017 0.0106 0.0106 0.0106 0.0106 0.0106 0.0106 0.017 0.017 0.017 0.017 0.017 0.017 0.0106 0.0106 0.0106 0.0106 0.0106 0.0106 0.017 0.017 0.017 0.017 0.017 0.017 0.0106 0.0106 0.0106 0.0106 0.0106 0.0106 0.017 0.017 0.017 0.017 0.017 0.017 0.0106 0.0106 0.0106 0.0106 0.0106 0.0106 0.017 0.017 0.017 0.017 0.017 0.017 0.0106 0.0106 0.0106 0.0106 0.0106 0.0106 0.017 0.017 0.017 0.017 0.017 0.017 0.0106 0.0106 0.0106 0.0106 0.0106 0.0106 0.017 0.017 0.017 0.017 0.017 0.017 0.0106 0.0106 0.0106 0.0106 0.0106 0.0106 0.017 0.017 0.017 0.017 0.017 0.017 0.0106 0.0106 0.0106 0.0106 0.0106 0.0106 0.017 0.017 0.017 0.017 0.017 0.017 0.0106 0.0106 0.0106 0.0106 0.0106 0.0106 0.017 0.017 0.017 0.017 0.017 0.017 0.0106 0.0106 0.0106 0.0106 0.0106 0.0106 0.017 0.017 0.017 0.017 0.017 0.017 0.0106 0.0106 0.0106 0.0106 0.0106 0.0106 0.017 0.017 0.017 0.017 0.017 0.017 0.0106 0.0106 0.0106 0.0106 0.0106 0.0106 0.017 0.017 0.017 0.017 0.017 0.017 0.0106 0.0106 0.0106 0.0106 0.0106 0.0106 0.017 0.017 0.017 0.017 0.017 0.017 0.0106 0.0106 0.0106 0.0106 0.0106 0.0106 0.017 0.017 0.017 0.017 0.017 0.017 0.0106 0.0106 0.0106 0.0106 0.0106 0.0106 0.017 0.017 0.017 0.017 0.017 0.017 0.0106 0.0106 0.0106 0.0106 0.0106 0.0106 0.017 0.017 0.017 0.017 0.017 0.017 0.0106 0.0106 0.0106 0.0106 0.0106 0.0106 0.017 0.017 0.017 0.017 0.017 0.017 0.0106 0.0106 0.0106 0.0106 0.0106 0.0106 0.017 0.017 0.017 0.017 0.017 0.017 0.0106 0.0106 0.0106 0.0106 0.0106 0.0106 0.017 0.017 0.017 0.017 0.017 0.017 0.0106 0.0106 0.0106 0.0106 0.0106 0.0106 0.017 0.017 0.017 0.017 0.017 0.017 0.0106 0.0106 0.0106 0.0106 0.0106 0.0106 0.017 0.017 0.017 0.017 0.017 0.017 0.0106 0.0106 0.0106 0.0106 0.0106 0.0106 0.017 0.017 0.017 0.017 0.017 0.017 0.0106 0.0106 0.0106 0.0106 0.0106 0.0106 0.017 0.017 0.017 0.017 0.017 0.017 0.0106 0.0106 0.0106 0.0106 0.0106 0.0106 0.017 0.017 0.017 0.017 0.017 0.017 0.0106 0.0106 0.0106 0.0106 0.0106 0.0106 0.017 0.017 0.017 0.017 0.017 0.017 0.0106 0.0106 0.0106 0.0106 0.0106 0.0106 0.017 0.017 0.017 0.017 0.017 0.017 0.0106 0.0106 0.0106 0.0106 0.0106 0.0106 0.017 0.017 0.017 0.017 0.017 0.017 0.0106 0.0106 0.0106 0.0106 0.0106 0.0106 0.017 0.017 0.017 0.017 0.017 0.017 0.0106 0.0106 0.0106 0.0106 0.0106 0.0106 0.017 0.017 0.017 0.017 0.017 0.017 0.0106 0.0106 0.0106 0.0106 0.0106 0.0106 0.017 0.017 0.017 0.017 0.017 0.017 0.0106 0.0106 0.0106 0.0106 0.0106 0.0106 0.017 0.017 0.017 0.017 0.017 0.017 0.0106 0.0106 0.0106 0.0106 0.0106 0.0106 0.017 0.017 0.017 0.017 0.017 0.017 0.0106 0.0106 0.0106 0.0106 0.0106 0.0106 0.017 0.017 0.017 0.017 0.017 0.017 0.0106 0.0106 0.0106 0.0106 0.0106 0.0106 0.017 0.017 0.017 0.017 0.017 0.017 0.0106 0.0106 0.0106 0.0106 0.0106 0.0106 0.017 0.017 0.017 0.017 0.017 0.017 0.0106 0.0106 0.0106 0.0106 0.0106 0.0106 0.017 0.017 0.017 0.017 0.017 0.017 0.0106 0.0106 0.0106 0.0106 0.0106 0.0106 0.017 0.017 0.017 0.017 0.017 0.017 0.0106 0.0106 0.0106 0.0106 0.0106 0.0106 0.017 0.017 0.017 0.017 0.017 0.017 0.0106 0.0106 0.0106 0.0106 0.0106 0.0106 0.017 0.017 0.017 0.017 0.017 0.017 0.0106 0.0106 0.0106 0.0106 0.0106 0.0106 0.017 0.017 0.017 0.017 0.017 0.017 0.0106 0.0106 0.0106 0.0106 0.0106 0.0106 0.017 0.017 0.017 0.017 0.017 0.017 0.0106 0.0106 0.0106 0.0106 0.0106 0.0106 0.017 0.017 0.017 0.017 0.017 0.017 0.0106 0.0106 0.0106 0.0106 0.0106 0.0106 0.017 0.017 0.017 0.017 0.017 0.017 0.0106 0.0106 0.0106 0.0106 0.0106 0.0106 0.017 0.017 0.017 0.017 0.017 0.017 0.0106 0.0106 0.0106 0.0106 0.0106 0.0106 0.017 0.017 0.017 0.017 0.017 0.017 0.0106 0.0106 0.0106 0.0106 0.0106 0.0675 0.0675 0.0675 0.0675 0.0675 0.0675 0.0675 0.0675 0.0675 0.0675 0.0675 0.0675 0.0675 0.0675 0.0675 0.0675 0.0675 0.0675 0.0675 0.0675 0.0675 0.0675 0.0675 0.0675 0.0675 0.0675 0.0675 0.0675 0.0675 0.0675 0.0675 0.0675 0.0675 0.0675 0.0675 0.0675 0.0675 0.0675 0.0675 0.0675 0.0675 0.0675 0.0675 0.0675 0.0675 0.0675 0.0675 0.0675 0.0675 0.0675 0.0675 0.0675 0.0675 0.0675 0.0675 0.0675 0.0675 0.0675 0.0675 0.0675 0.0675 0.0675 0.0675 0.0675 0.0675 0.0675 0.0675 0.0675 0.0675 0.0675 0.0675 0.0675 0.0675 0.0675 0.0675 0.0675 0.0675 0.0675 0.0675 0.0675 0.0675 0.0675 0.0675 0.0675 0.0675 0.0675 0.0675 0.0675 0.0675 0.0675 0.0675 0.0675 0.0675 0.0675 0.0675 0.0675 0.0675 0.0675 0.0675 0.0675 0.0675 0.0675 0.0675 0.0675 0.0675 0.0675 0.0675 0.0675 0.0675 0.0675 0.0675 0.0675 0.0675 0.0675 0.0675 0.0675 0.0675 0.0675 0.0675 0.0675 0.0675 0.0675 0.0675 0.0675 0.0675 0.0675 0.0675 0.0675 0.0675 0.0675 0.0675 0.0675 0.0675 0.0675 0.0675 0.0675 0.0675 0.0675 0.0675 0.0675 0.0675 0.0675 0.0675 0.0675 0.0675 0.0675 0.0675 0.0675 0.0675 0.0675 0.0675 0.0675 0.0675 0.0675 0.0675 0.0675 0.0675 0.0675 0.0675 0.0675 0.0675 0.0675 0.0675 0.0675 0.0675 0.0675 0.0675 0.0675 0.0675 0.0675 0.0675 0.0675 0.0675 0.0675 0.0675 0.0675 0.0675 0.0675 0.0675 0.0675 0.0675 0.0675 0.0675 0.0675 0.0675 0.0675 0.0675 0.0675 0.0675 0.0675 0.0675 0.0675 0.0675 0.0675 0.0675 0.0675 0.0675 0.0675 0.0675 0.0675 0.0675 0.0675 0.0675 0.0675 0.0675 0.0675 0.0675 0.0675 0.0675 0.0675 0.0675 0.0675 0.0675 0.0675 0.0675 0.0675 0.0675 0.0675 0.0675 0.0675 0.0675 0.0675 0.0675 0.0675 0.0675 0.0675 0.0675 0.0675 0.0675 0.0675 0.0675 0.0675 0.0675 0.0675 0.0675 0.0675 0.0675 0.0675 0.0675 0.0675 0.0675 0.0675 0.0675 0.0675 0.0106 0.0106 0.0106 0.0106 0.0106 0.0106 0.0106 0.0106 0.0106 0.0106 0.0106 0.0106 0.0106 0.0106 0.0106 0.0106 0.0106 0.0106 0.0106 0.0106 0.0106 0.0106 0.0106 0.0106 0.0106 0.0106 0.0106 0.0106 0.0106 0.0106 0.0106 0.0106 0.0106 0.0106 0.0106 0.0106 0.0106 0.0106 0.0106 0.0106 0.0106 0.0106 0.0106 0.0106 0.0106 0.0106 0.0106 0.0106 0.0106 0.0106 0.0106 0.0106 0.0106 0.0106 0.0106 0.0106 0.0106 0.0106 0.0106 0.0106 0.0106 0.0106 0.0106 0.0106 0.0106 0.0106 0.0106 0.0106 0.0106 0.0106 0.0106 0.0106 0.0106 0.0106 0.0106 0.0106 0.0106 0.0106 0.0106 0.0106 0.0106 0.0106 0.0106 0.0106 0.0106 0.0106 0.0106 0.0106 0.0106 0.0106 0.0106 0.0106 0.0106 0.0106 0.0106 0.0106 0.0106 0.0106 0.0106 0.0106 0.0106 0.0106 0.0106 0.0106 0.0106 0.0106 0.0106 0.0106 0.0106 0.0106 0.0106 0.0106 0.0106 0.0106 0.0106 0.0106 0.0106 0.0106 0.0106 0.0106 0.0106 0.0106 0.0106 0.0106 0.0106 0.0106 0.0106 0.0106 0.0106 0.0106 0.0106 0.0106 0.0106 0.0106 0.0106 0.0106 0.0106 0.0106 0.0106 0.0106 0.0106 0.0106 0.0106 0.0106 0.0106 0.0106 0.0106 0.0106 0.0106 0.0106 0.0106 0.0106 0.0106 0.0106 0.0106 0.0106 0.0106 0.0106 0.0106 0.0106 0.0106 0.0106 0.0106 0.0106 0.0106 0.0106 0.0106 0.0106 0.0106 0.0106 0.0106 0.0106 0.0106 0.0106 0.0106 0.0106 0.0106 0.0106 0.0106 0.0106 0.0106 0.0106 0.0106 0.0106 0.0106 0.0106 0.0106 0.0106 0.0106 0.0106 0.0106 0.0106 0.0106 0.0106 0.0106 0.0106 0.0106 0.0106 0.0106 0.0106 0.0106 0.0106 0.0106 0.0106 0.0106 0.0106 0.0106 0.0106 0.0106 0.0106 0.0106 0.0106 0.0106 0.0106 0.0106 0.0106 0.0106 0.0106 0.0106 0.0106 0.0106 0.0106 0.0106 0.0106 0.0106 0.0106 0.0106 0.0106 0.0106 0.0106 0.0106 0.0106 0.0106 0.0106 0.0106 0.0106 0.0106 0.0106 0.0106 0.0106 0.0106 0.0106 0.0106 0.0106 0.0106 0.0106 0.0106 0.0106 0.0106 0.0106 0.0106 0.0106 0.0106 0.0106 0.0106 0.0106 0.0106 0.0106 0.0106 0.0106 0.0106 0.0106 0.0106 0.0106 0.0106 0.0106 0.0106 0.0106 0.0106 0.0106 0.0106 0.0106 0.0106 0.0106 0.0106 0.0106 0.0106 0.0106 0.0106 0.0106 0.0106 0.0106 0.0106 0.0106 0.0106 0.0106 0.0106 0.0106 0.0106 0.0106 0.0106 0.0106 0.0106 0.0106 0.0106 0.0106 0.0106 0.017 0.017 0.017 0.017 0.017 0.017 0.0106 0.0106 0.0106 0.0106 0.0106 0.0106 0.0106 0.0106 0.0106 0.0106 0.0106 0.017 0.017 0.017 0.017 0.017 0.017 0.017 0.0106 0.0106 0.0106 0.0106 0.0106 0.0106 0.017 0.017 0.017 0.017 0.017 0.017 0.017 0.0106 0.0106 0.0106 0.0106 0.0106 0.0106 0.017 0.017 0.017 0.017 0.017 0.017 0.0106 0.0106 0.0106 0.0106 0.0106 0.0106 0.017 0.017 0.017 0.017 0.017 0.017 0.0106 0.0106 0.0106 0.0106 0.0106 0.0106 0.017 0.017 0.017 0.017 0.017 0.017 0.0106 0.0106 0.0106 0.0106 0.0106 0.0106 0.017 0.017 0.017 0.017 0.017 0.017 0.0106 0.0106 0.0106 0.0106 0.0106 0.0106 0.0106 0.0106 0.0106 0.017 0.017 0.017 0.017 0.017 0.017 0.0106 0.0106 0.0106 0.0106 0.0106 0.0106 0.017 0.017 0.017 0.017 0.017 0.017 0.0106 0.0106 0.0106 0.0106 0.0106 0.0106 0.017 0.017 0.017 0.017 0.017 0.017 0.0106 0.0106 0.0106 0.0106 0.0106 0.0106 0.017 0.017 0.017 0.017 0.017 0.017 0.0106 0.0106 0.0106 0.0106 0.0106 0.0106 0.017 0.017 0.017 0.017 0.017 0.017 0.0106 0.0106 0.0106 0.0106 0.0106 0.0106 0.017 0.017 0.017 0.017 0.017 0.017 0.0106 0.0106 0.0106 0.0106 0.0106 0.0106 0.017 0.017 0.017 0.017 0.017 0.017 0.0106 0.0106 0.0106 0.0106 0.0106 0.0106 0.017 0.017 0.017 0.017 0.017 0.017 0.0106 0.0106 0.0106 0.0106 0.0106 0.0106 0.017 0.017 0.017 0.017 0.017 0.017 0.0106 0.0106 0.0106 0.0106 0.0106 0.0106 0.017 0.017 0.017 0.017 0.017 0.017 0.0106 0.0106 0.0106 0.0106 0.0106 0.0106 0.017 0.017 0.017 0.017 0.017 0.017 0.0106 0.0106 0.0106 0.0106 0.0106 0.0106 0.017 0.017 0.017 0.017 0.017 0.017 0.0106 0.0106 0.0106 0.0106 0.0106 0.0106 0.017 0.017 0.017 0.017 0.017 0.017 0.0106 0.0106 0.0106 0.0106 0.0106 0.0106 0.017 0.017 0.017 0.017 0.017 0.017 0.0106 0.0106 0.0106 0.0106 0.0106 0.0106 0.017 0.017 0.017 0.017 0.017 0.017 0.0106 0.0106 0.0106 0.0106 0.0106 0.0106 0.017 0.017 0.017 0.017 0.017 0.017 0.0106 0.0106 0.0106 0.0106 0.0106 0.0106 0.017 0.017 0.017 0.017 0.017 0.017 0.0106 0.0106 0.0106 0.0106 0.0106 0.0106 0.017 0.017 0.017 0.017 0.017 0.017 0.0106 0.0106 0.0106 0.0106 0.0106 0.0106 0.017 0.017 0.017 0.017 0.017 0.017 0.0106 0.0106 0.0106 0.0106 0.0106 0.0106 0.017 0.017 0.017 0.017 0.017 0.017 0.0106 0.0106 0.0106 0.0106 0.0106 0.0106 0.017 0.017 0.017 0.017 0.017 0.017 0.0106 0.0106 0.0106 0.0106 0.0106 0.0106 0.017 0.017 0.017 0.017 0.017 0.017 0.0106 0.0106 0.0106 0.0106 0.0106 0.0106 0.017 0.017 0.017 0.017 0.017 0.017 0.0106 0.0106 0.0106 0.0106 0.0106 0.0106 0.017 0.017 0.017 0.017 0.017 0.017 0.0106 0.0106 0.0106 0.0106 0.0106 0.0106 0.017 0.017 0.017 0.017 0.017 0.017 0.0106 0.0106 0.0106 0.0106 0.0106 0.0106 0.017 0.017 0.017 0.017 0.017 0.017 0.0106 0.0106 0.0106 0.0106 0.0106 0.0106 0.017 0.017 0.017 0.017 0.017 0.017 0.0106 0.0106 0.0106 0.0106 0.0106 0.0106 0.017 0.017 0.017 0.017 0.017 0.017 0.0106 0.0106 0.0106 0.0106 0.0106 0.0106 0.017 0.017 0.017 0.017 0.017 0.017 0.0106 0.0106 0.0106 0.0106 0.0106 0.0106 0.017 0.017 0.017 0.017 0.017 0.017 0.0106 0.0106 0.0106 0.0106 0.0106 0.0106 0.017 0.017 0.017 0.017 0.017 0.017 0.0106 0.0106 0.0106 0.0106 0.0106 0.0106 0.017 0.017 0.017 0.017 0.017 0.017 0.0106 0.0106 0.0106 0.0106 0.0106 0.0106 0.017 0.017 0.017 0.017 0.017 0.017 0.0106 0.0106 0.0106 0.0106 0.0106 0.0106 0.017 0.017 0.017 0.017 0.017 0.017 0.0106 0.0106 0.0106 0.0106 0.0106 0.0106 0.017 0.017 0.017 0.017 0.017 0.017 0.0106 0.0106 0.0106 0.0106 0.0106 0.0106 0.017 0.017 0.017 0.017 0.017 0.017 0.0106 0.0106 0.0106 0.0106 0.0106 0.0106 0.017 0.017 0.017 0.017 0.017 0.017 0.0106 0.0106 0.0106 0.0106 0.0106 0.0106 0.017 0.017 0.017 0.017 0.017 0.017 0.0106 0.0106 0.0106 0.0106 0.0106 0.0106 0.017 0.017 0.017 0.017 0.017 0.017 0.0106 0.0106 0.0106 0.0106 0.0106 0.0106 0.017 0.017 0.017 0.017 0.017 0.017 0.0106 0.0106 0.0106 0.0106 0.0106 0.0106 0.017 0.017 0.017 0.017 0.017 0.017 0.0106 0.0106 0.0106 0.0106 0.0106 0.0106 0.017 0.017 0.017 0.017 0.017 0.017 0.0106 0.0106 0.0106 0.0106 0.0106 0.0106 0.017 0.017 0.017 0.017 0.017 0.017 0.0106 0.0106 0.0106 0.0106 0.0106 0.0106 0.017 0.017 0.017 0.017 0.017 0.017 0.0106 0.0106 0.0106 0.0106 0.0106 0.0106 0.017 0.017 0.017 0.017 0.017 0.017 0.0106 0.0106 0.0106 0.0106 0.0106 0.0106 0.017 0.017 0.017 0.017 0.017 0.017 0.0106 0.0106 0.0106 0.0106 0.0106 0.0106 0.017 0.017 0.017 0.017 0.017 0.017 0.0106 0.0106 0.0106 0.0106 0.0106 0.0106 0.017 0.017 0.017 0.017 0.017 0.017 0.0106 0.0106 0.0106 0.0106 0.0106 0.0106 0.017 0.017 0.017 0.017 0.017 0.017 0.0106 0.0106 0.0106 0.0106 0.0106 0.0106 0.017 0.017 0.017 0.017 0.017 0.017 0.0106 0.0106 0.0106 0.0106 0.0106 0.0106 0.017 0.017 0.017 0.017 0.017 0.017 0.0106 0.0106 0.0106 0.0106 0.0106 0.0106 0.017 0.017 0.017 0.017 0.017 0.017 0.0106 0.0106 0.0106 0.0106 0.0106 0.0106 0.017 0.017 0.017 0.017 0.017 0.017 0.0106 0.0106 0.0106 0.0106 0.0106 0.0106 0.017 0.017 0.017 0.017 0.017 0.017 0.0106 0.0106 0.0106 0.0106 0.0106 0.0106 0.017 0.017 0.017 0.017 0.017 0.017 0.0106 0.0106 0.0106 0.0106 0.0106 0.0106 0.017 0.017 0.017 0.017 0.017 0.017 0.0106 0.0106 0.0106 0.0106 0.0106 0.0106 0.017 0.017 0.017 0.017 0.017 0.017 0.0106 0.0106 0.0106 0.0106 0.0106 0.0106 0.017 0.017 0.017 0.017 0.017 0.017 0.0106 0.0106 0.0106 0.0106 0.0106 0.0106 0.017 0.017 0.017 0.017 0.017 0.017 0.0106 0.0106 0.0106 0.0106 0.0106 0.0106 0.017 0.017 0.017 0.017 0.017 0.017 0.0106 0.0106 0.0106 0.0106 0.0106 0.0106 0.017 0.017 0.017 0.017 0.017 0.017 0.0106 0.0106 0.0106 0.0106 0.0106 0.0106 0.017 0.017 0.017 0.017 0.017 0.017 0.0106 0.0106 0.0106 0.0106 0.0106 0.0106 0.017 0.017 0.017 0.017 0.017 0.017 0.0106 0.0106 0.0106 0.0106 0.0106 0.0106 0.017 0.017 0.017 0.017 0.017 0.017 0.0106 0.0106 0.0106 0.0106 0.0106 0.0106 0.017 0.017 0.017 0.017 0.017 0.017 0.0106 0.0106 0.0106 0.0106 0.0106 0.0106 0.017 0.017 0.017 0.017 0.017 0.017 0.0106 0.0106 0.0106 0.0106 0.0106 0.0106 0.017 0.017 0.017 0.017 0.017 0.017 0.0106 0.0106 0.0106 0.0106 0.0106 0.0106 0.017 0.017 0.017 0.017 0.017 0.017 0.0106 0.0106 0.0106 0.0106 0.0106 0.0106 0.017 0.017 0.017 0.017 0.017 0.017 0.0106 0.0106 0.0106 0.0106 0.0106 0.0106 0.017 0.017 0.017 0.017 0.017 0.017 0.0106 0.0106 0.0106 0.0106 0.0106 0.0106 0.017 0.017 0.017 0.017 0.017 0.017 0.0106 0.0106 0.0106 0.0106 0.0106 0.0106 0.017 0.017 0.017 0.017 0.017 0.017 0.0106 0.0106 0.0106 0.0106 0.0106 0.0106 0.017 0.017 0.017 0.017 0.017 0.017 0.0106 0.0106 0.0106 0.0106 0.0106 0.0106 0.017 0.017 0.017 0.017 0.017 0.017 0.0106 0.0106 0.0106 0.0106 0.0106 0.0106 0.017 0.017 0.017 0.017 0.017 0.017 0.0106 0.0106 0.0106 0.0106 0.0106 0.0106 0.017 0.017 0.017 0.017 0.017 0.017 0.0106 0.0106 0.0106 0.0106 0.0106 0.0106 0.017 0.017 0.017 0.017 0.017 0.017 0.0106 0.0106 0.0106 0.0106 0.0106 0.0106 0.017 0.017 0.017 0.017 0.017 0.017 0.0106 0.0106 0.0106 0.0106 0.0106 0.0106 0.017 0.017 0.017 0.017 0.017 0.017 0.0106 0.0106 0.0106 0.0106 0.0106 0.0106 0.017 0.017 0.017 0.017 0.017 0.017 0.0106 0.0106 0.0106 0.0106 0.0106 0.0106 0.017 0.017 0.017 0.017 0.017 0.017 0.0106 0.0106 0.0106 0.0106 0.0106 0.0106 0.017 0.017 0.017 0.017 0.017 0.017 0.0106 0.0106 0.0106 0.0106 0.0106 0.0106 0.017 0.017 0.017 0.017 0.017 0.017 0.0106 0.0106 0.0106 0.0106 0.0106 0.0106 0.017 0.017 0.017 0.017 0.017 0.017 0.0106 0.0106 0.0106 0.0106 0.0106 0.0106 0.017 0.017 0.017 0.017 0.017 0.017 0.0106 0.0106 0.0106 0.0106 0.0106 0.0106 0.017 0.017 0.017 0.017 0.017 0.017 0.0106 0.0106 0.0106 0.0106 0.0106 0.0106 0.017 0.017 0.017 0.017 0.017 0.017 0.0106 0.0106 0.0106 0.0106 0.0106 0.0106 0.017 0.017 0.017 0.017 0.017 0.017 0.0106 0.0106 0.0106 0.0106 0.0106 0.0106 0.017 0.017 0.017 0.017 0.017 0.017 0.0106 0.0106 0.0106 0.0106 0.0106 0.0106 0.017 0.017 0.017 0.017 0.017 0.017 0.0106 0.0106 0.0106 0.0106 0.0106 0.0106 0.017 0.017 0.017 0.017 0.017 0.017 0.0106 0.0106 0.0106 0.0106 0.0106 0.0106 0.017 0.017 0.017 0.017 0.017 0.017 0.0106 0.0106 0.0106 0.0106 0.0106 0.0106 0.017 0.017 0.017 0.017 0.017 0.017 0.0106 0.0106 0.0106 0.0106 0.0106 0.0106 0.017 0.017 0.017 0.017 0.017 0.017 0.0106 0.0106 0.0106 0.0106 0.0106 0.0106 0.017 0.017 0.017 0.017 0.017 0.017 0.0106 0.0106 0.0106 0.0106 0.0106 0.0106 0.017 0.017 0.017 0.017 0.017 0.017 0.0106 0.0106 0.0106 0.0106 0.0106 0.0106 0.017 0.017 0.017 0.017 0.017 0.017 0.0106 0.0106 0.0106 0.0106 0.0106 0.0106 0.017 0.017 0.017 0.017 0.017 0.017 0.0106 0.0106 0.0106 0.0106 0.0106 0.0106 0.017 0.017 0.017 0.017 0.017 0.017 0.0106 0.0106 0.0106 0.0106 0.0106 0.0106 0.017 0.017 0.017 0.017 0.017 0.017 0.0106 0.0106 0.0106 0.0106 0.0106 0.0106 0.017 0.017 0.017 0.017 0.017 0.017 0.0106 0.0106 0.0106 0.0106 0.0106 0.0106 0.017 0.017 0.017 0.017 0.017 0.017 0.0106 0.0106 0.0106 0.0106 0.0106 0.0106 0.017 0.017 0.017 0.017 0.017 0.017 0.0106 0.0106 0.0106 0.0106 0.0106 0.0106 0.017 0.017 0.017 0.017 0.017 0.017 0.0106 0.0106 0.0106 0.0106 0.0106 0.0106 0.017 0.017 0.017 0.017 0.017 0.017 0.0106 0.0106 0.0106 0.0106 0.0106 0.0106 0.017 0.017 0.017 0.017 0.017 0.017 0.0106 0.0106 0.0106 0.0106 0.0106 0.0106 0.017 0.017 0.017 0.017 0.017 0.017 0.0106 0.0106 0.0106 0.0106 0.0106 0.0106 0.017 0.017 0.017 0.017 0.017 0.017 0.0106 0.0106 0.0106 0.0106 0.0106 0.0106 0.017 0.017 0.017 0.017 0.017 0.017 0.0106 0.0106 0.0106 0.0106 0.0106 0.0106 0.017 0.017 0.017 0.017 0.017 0.017 0.0106 0.0106 0.0106 0.0106 0.0106 0.0106 0.017 0.017 0.017 0.017 0.017 0.017 0.0106 0.0106 0.0106 0.0106 0.0106 0.0106 0.017 0.017 0.017 0.017 0.017 0.017 0.0106 0.0106 0.0106 0.0106 0.0106 0.0106 0.017 0.017 0.017 0.017 0.017 0.017 0.0106 0.0106 0.0106 0.0106 0.0106 0.0106 0.017 0.017 0.017 0.017 0.017 0.017 0.0106 0.0106 0.0106 0.0106 0.0106 0.0106 0.017 0.017 0.017 0.017 0.017 0.017 0.0106 0.0106 0.0106 0.0106 0.0106 0.0106 0.017 0.017 0.017 0.017 0.017 0.017 0.0106 0.0106 0.0106 0.0106 0.0106 0.0106 0.017 0.017 0.017 0.017 0.017 0.017 0.0106 0.0106 0.0106 0.0106 0.0106 0.0106 0.017 0.017 0.017 0.017 0.017 0.017 0.0106 0.0106 0.0106 0.0106 0.0106 0.0106 0.017 0.017 0.017 0.017 0.017 0.017 0.0106 0.0106 0.0106 0.0106 0.0106 0.0106 0.017 0.017 0.017 0.017 0.017 0.017 0.0106 0.0106 0.0106 0.0106 0.0106 0.0106 0.017 0.017 0.017 0.017 0.017 0.017 0.0106 0.0106 0.0106 0.0106 0.0106 0.0106 0.017 0.017 0.017 0.017 0.017 0.017 0.0106 0.0106 0.0106 0.0106 0.0106 0.0106 0.017 0.017 0.017 0.017 0.017 0.017 0.0106 0.0106 0.0106 0.0106 0.0106 0.0106 0.017 0.017 0.017 0.017 0.017 0.017 0.0106 0.0106 0.0106 0.0106 0.0106 0.0106 0.017 0.017 0.017 0.017 0.017 0.017 0.0106 0.0106 0.0106 0.0106 0.0106 0.0106 0.017 0.017 0.017 0.017 0.017 0.017 0.0106 0.0106 0.0106 0.0106 0.0106 0.0106 0.017 0.017 0.017 0.017 0.017 0.017 0.0106 0.0106 0.0106 0.0106 0.0106 0.0106 0.017 0.017 0.017 0.017 0.017 0.017 0.0106 0.0106 0.0106 0.0106 0.0106 0.0106 0.017 0.017 0.017 0.017 0.017 0.017 0.0106 0.0106 0.0106 0.0106 0.0106 0.0106 0.017 0.017 0.017 0.017 0.017 0.017 0.0106 0.0106 0.0106 0.0106 0.0106 0.0106 0.017 0.017 0.017 0.017 0.017 0.017 0.0106 0.0106 0.0106 0.0106 0.0106 0.017 0.017 0.017 0.017 0.017 0.017 0.0106 0.0106 0.0106 0.0106 0.0106 0.017 0.017 