<?xml version="1.0"?><VTKFile type="PolyData" version="0.1" byte_order="LittleEndian">
<PolyData>
<Piece NumberOfLines="25134" NumberOfPoints="25135">
<CellData doubles=" CellData">
<DataArray type="Float32" Name="radius" NumberOfComponents="1" format="ascii" >
0.06375 0.06375 0.06375 0.06375 0.06375 0.06375 0.06375 0.06375 0.06375 0.06375 0.06375 0.06375 0.06375 0.06375 0.06375 0.06375 0.06375 0.06375 0.06375 0.06375 0.06375 0.06375 0.06375 0.06375 0.06375 0.06375 0.06375 0.06375 0.06375 0.06375 0.06375 0.06375 0.06375 0.06375 0.06375 0.06375 0.06375 0.06375 0.06375 0.06375 0.06375 0.06375 0.06375 0.06375 0.06375 0.06375 0.06375 0.06375 0.06375 0.06375 0.06375 0.06375 0.06375 0.06375 0.06375 0.06375 0.06375 0.06375 0.06375 0.06375 0.06375 0.06375 0.06375 0.06375 0.06375 0.06375 0.06375 0.06375 0.06375 0.06375 0.06375 0.06375 0.06375 0.06375 0.06375 0.06375 0.06375 0.06375 0.06375 0.06375 0.06375 0.06375 0.06375 0.06375 0.06375 0.06375 0.06375 0.06375 0.06375 0.06375 0.06375 0.06375 0.06375 0.06375 0.06375 0.06375 0.06375 0.06375 0.06375 0.06375 0.06375 0.06375 0.06375 0.06375 0.06375 0.06375 0.06375 0.06375 0.06375 0.06375 0.06375 0.06375 0.06375 0.06375 0.06375 0.06375 0.06375 0.06375 0.06375 0.06375 0.06375 0.06375 0.06375 0.06375 0.06375 0.06375 0.06375 0.06375 0.06375 0.06375 0.06375 0.06375 0.06375 0.06375 0.06375 0.06375 0.06375 0.06375 0.06375 0.06375 0.06375 0.06375 0.06375 0.06375 0.06375 0.06375 0.06375 0.06375 0.06375 0.06375 0.06375 0.06375 0.06375 0.06375 0.06375 0.06375 0.06375 0.06375 0.06375 0.06375 0.06375 0.06375 0.06375 0.06375 0.06375 0.06375 0.06375 0.06375 0.06375 0.06375 0.06375 0.06375 0.06375 0.06375 0.06375 0.06375 0.06375 0.06375 0.06375 0.06375 0.06375 0.06375 0.06375 0.06375 0.06375 0.06375 0.06375 0.06375 0.06375 0.06375 0.06375 0.06375 0.06375 0.06375 0.06375 0.06375 0.06375 0.06375 0.06375 0.06375 0.06375 0.06375 0.06375 0.06375 0.06375 0.06375 0.06375 0.06375 0.06375 0.06375 0.06375 0.06375 0.06375 0.06375 0.06375 0.06375 0.06375 0.06375 0.06375 0.06375 0.06375 0.06375 0.06375 0.06375 0.06375 0.06375 0.06375 0.06375 0.06375 0.06375 0.06375 0.06375 0.01 0.01 0.01 0.01 0.01 0.01 0.01 0.01 0.01 0.01 0.01 0.01 0.01 0.01 0.01 0.01 0.01 0.01 0.01 0.01 0.01 0.01 0.01 0.01 0.01 0.01 0.01 0.01 0.01 0.01 0.01 0.01 0.01 0.01 0.01 0.01 0.01 0.01 0.01 0.01 0.01 0.01 0.01 0.01 0.01 0.01 0.01 0.01 0.01 0.01 0.01 0.01 0.01 0.01 0.01 0.01 0.01 0.01 0.01 0.01 0.01 0.01 0.01 0.01 0.01 0.01 0.01 0.01 0.01 0.01 0.01 0.01 0.01 0.01 0.01 0.01 0.01 0.01 0.01 0.01 0.01 0.01 0.01 0.01 0.01 0.01 0.01 0.01 0.01 0.01 0.01 0.01 0.01 0.01 0.01 0.01 0.01 0.01 0.01 0.01 0.01 0.01 0.01 0.01 0.01 0.01 0.01 0.01 0.01 0.01 0.01 0.01 0.01 0.01 0.01 0.01 0.01 0.01 0.01 0.01 0.01 0.01 0.01 0.01 0.01 0.01 0.01 0.01 0.01 0.023 0.023 0.023 0.023 0.023 0.023 0.023 0.023 0.023 0.023 0.023 0.023 0.023 0.023 0.012 0.012 0.012 0.012 0.012 0.012 0.012 0.012 0.012 0.012 0.012 0.012 0.012 0.012 0.012 0.012 0.012 0.012 0.012 0.012 0.012 0.012 0.012 0.012 0.012 0.012 0.01 0.01 0.01 0.01 0.01 0.01 0.023 0.023 0.023 0.023 0.023 0.023 0.023 0.023 0.023 0.023 0.023 0.023 0.023 0.023 0.012 0.012 0.012 0.012 0.012 0.012 0.012 0.012 0.012 0.012 0.012 0.012 0.012 0.012 0.012 0.012 0.012 0.012 0.012 0.012 0.012 0.012 0.012 0.012 0.012 0.012 0.01 0.01 0.01 0.023 0.023 0.023 0.023 0.023 0.023 0.023 0.023 0.023 0.023 0.023 0.023 0.023 0.023 0.012 0.012 0.012 0.012 0.012 0.012 0.012 0.012 0.012 0.012 0.012 0.012 0.012 0.012 0.012 0.012 0.012 0.012 0.012 0.012 0.012 0.012 0.012 0.012 0.012 0.012 0.023 0.023 0.023 0.023 0.023 0.023 0.023 0.023 0.023 0.023 0.023 0.023 0.023 0.023 0.012 0.012 0.012 0.012 0.012 0.012 0.012 0.012 0.012 0.012 0.012 0.012 0.012 0.012 0.012 0.012 0.012 0.012 0.012 0.012 0.012 0.012 0.012 0.012 0.012 0.012 0.023 0.023 0.023 0.023 0.023 0.023 0.023 0.023 0.023 0.023 0.023 0.023 0.023 0.023 0.012 0.012 0.012 0.012 0.012 0.012 0.012 0.012 0.012 0.012 0.012 0.012 0.012 0.012 0.012 0.012 0.012 0.012 0.012 0.012 0.012 0.012 0.012 0.012 0.012 0.012 0.023 0.023 0.023 0.023 0.023 0.023 0.023 0.023 0.023 0.023 0.023 0.023 0.023 0.023 0.012 0.012 0.012 0.012 0.012 0.012 0.012 0.012 0.012 0.012 0.012 0.012 0.012 0.012 0.012 0.012 0.012 0.012 0.012 0.012 0.012 0.012 0.012 0.012 0.012 0.012 0.023 0.023 0.023 0.023 0.023 0.023 0.023 0.023 0.023 0.023 0.023 0.023 0.023 0.023 0.012 0.012 0.012 0.012 0.012 0.012 0.012 0.012 0.012 0.012 0.012 0.012 0.012 0.012 0.012 0.012 0.012 0.012 0.012 0.012 0.012 0.012 0.012 0.012 0.012 0.012 0.01 0.01 0.01 0.023 0.023 0.023 0.023 0.023 0.023 0.023 0.023 0.023 0.023 0.023 0.023 0.023 0.023 0.012 0.012 0.012 0.012 0.012 0.012 0.012 0.012 0.012 0.012 0.012 0.012 0.012 0.012 0.012 0.012 0.012 0.012 0.012 0.012 0.012 0.012 0.012 0.012 0.012 0.012 0.023 0.023 0.023 0.023 0.023 0.023 0.023 0.023 0.023 0.023 0.023 0.023 0.023 0.023 0.012 0.012 0.012 0.012 0.012 0.012 0.012 0.012 0.012 0.012 0.012 0.012 0.012 0.012 0.012 0.012 0.012 0.012 0.012 0.012 0.012 0.012 0.012 0.012 0.012 0.012 0.023 0.023 0.023 0.023 0.023 0.023 0.023 0.023 0.023 0.023 0.023 0.023 0.023 0.023 0.012 0.012 0.012 0.012 0.012 0.012 0.012 0.012 0.012 0.012 0.012 0.012 0.012 0.012 0.012 0.012 0.012 0.012 0.012 0.012 0.012 0.012 0.012 0.012 0.012 0.012 0.023 0.023 0.023 0.023 0.023 0.023 0.023 0.023 0.023 0.023 0.023 0.023 0.023 0.012 0.012 0.012 0.012 0.012 0.012 0.012 0.012 0.012 0.012 0.012 0.012 0.012 0.012 0.012 0.012 0.012 0.012 0.012 0.012 0.012 0.012 0.012 0.012 0.023 0.023 0.023 0.023 0.023 0.023 0.023 0.023 0.023 0.023 0.023 0.023 0.023 0.012 0.012 0.012 0.012 0.012 0.012 0.012 0.012 0.012 0.012 0.012 0.012 0.012 0.012 0.012 0.012 0.012 0.012 0.012 0.012 0.012 0.012 0.012 0.012 0.01 0.01 0.01 0.023 0.023 0.023 0.023 0.023 0.023 0.023 0.023 0.023 0.023 0.023 0.023 0.012 0.012 0.012 0.012 0.012 0.012 0.012 0.012 0.012 0.012 0.012 0.012 0.012 0.012 0.012 0.012 0.012 0.012 0.012 0.012 0.012 0.012 0.023 0.023 0.023 0.023 0.023 0.023 0.023 0.023 0.023 0.023 0.023 0.023 0.012 0.012 0.012 0.012 0.012 0.012 0.012 0.012 0.012 0.012 0.012 0.012 0.012 0.012 0.012 0.012 0.012 0.012 0.012 0.012 0.012 0.012 0.023 0.023 0.023 0.023 0.023 0.023 0.023 0.023 0.023 0.023 0.023 0.023 0.012 0.012 0.012 0.012 0.012 0.012 0.012 0.012 0.012 0.012 0.012 0.012 0.012 0.012 0.012 0.012 0.012 0.012 0.012 0.012 0.012 0.012 0.023 0.023 0.023 0.023 0.023 0.023 0.023 0.023 0.023 0.023 0.023 0.023 0.012 0.012 0.012 0.012 0.012 0.012 0.012 0.012 0.012 0.012 0.012 0.012 0.012 0.012 0.012 0.012 0.012 0.012 0.012 0.012 0.012 0.012 0.023 0.023 0.023 0.023 0.023 0.023 0.023 0.023 0.023 0.023 0.023 0.012 0.012 0.012 0.012 0.012 0.012 0.012 0.012 0.012 0.012 0.012 0.012 0.012 0.012 0.012 0.012 0.012 0.012 0.012 0.012 0.023 0.023 0.023 0.023 0.023 0.023 0.023 0.023 0.023 0.023 0.023 0.012 0.012 0.012 0.012 0.012 0.012 0.012 0.012 0.012 0.012 0.012 0.012 0.012 0.012 0.012 0.012 0.012 0.012 0.012 0.012 0.023 0.023 0.023 0.023 0.023 0.023 0.023 0.023 0.023 0.023 0.012 0.012 0.012 0.012 0.012 0.012 0.012 0.012 0.012 0.012 0.012 0.012 0.012 0.012 0.012 0.012 0.012 0.012 0.023 0.023 0.023 0.023 0.023 0.023 0.023 0.023 0.023 0.023 0.012 0.012 0.012 0.012 0.012 0.012 0.012 0.012 0.012 0.012 0.012 0.012 0.012 0.012 0.012 0.012 0.012 0.012 0.023 0.023 0.023 0.023 0.023 0.023 0.023 0.023 0.023 0.023 0.012 0.012 0.012 0.012 0.012 0.012 0.012 0.012 0.012 0.012 0.012 0.012 0.012 0.012 0.012 0.012 0.012 0.012 0.023 0.023 0.023 0.023 0.023 0.023 0.023 0.023 0.023 0.023 0.012 0.012 0.012 0.012 0.012 0.012 0.012 0.012 0.012 0.012 0.012 0.012 0.012 0.012 0.012 0.012 0.012 0.012 0.023 0.023 0.023 0.023 0.023 0.023 0.023 0.023 0.023 0.023 0.012 0.012 0.012 0.012 0.012 0.012 0.012 0.012 0.012 0.012 0.012 0.012 0.012 0.012 0.012 0.012 0.012 0.012 0.023 0.023 0.023 0.023 0.023 0.023 0.023 0.023 0.023 0.012 0.012 0.012 0.012 0.012 0.012 0.012 0.012 0.012 0.012 0.012 0.012 0.012 0.012 0.012 0.012 0.012 0.012 0.023 0.023 0.023 0.023 0.023 0.023 0.023 0.023 0.023 0.012 0.012 0.012 0.012 0.012 0.012 0.012 0.012 0.012 0.012 0.012 0.012 0.012 0.012 0.012 0.012 0.023 0.023 0.023 0.023 0.023 0.023 0.023 0.023 0.023 0.012 0.012 0.012 0.012 0.012 0.012 0.012 0.012 0.012 0.012 0.012 0.012 0.012 0.012 0.012 0.012 0.023 0.023 0.023 0.023 0.023 0.023 0.023 0.023 0.023 0.012 0.012 0.012 0.012 0.012 0.012 0.012 0.012 0.012 0.012 0.012 0.012 0.012 0.012 0.012 0.012 0.023 0.023 0.023 0.023 0.023 0.023 0.023 0.023 0.023 0.012 0.012 0.012 0.012 0.012 0.012 0.012 0.012 0.012 0.012 0.012 0.012 0.012 0.012 0.012 0.012 0.023 0.023 0.023 0.023 0.023 0.023 0.023 0.023 0.023 0.012 0.012 0.012 0.012 0.012 0.012 0.012 0.012 0.012 0.012 0.012 0.012 0.012 0.012 0.012 0.012 0.023 0.023 0.023 0.023 0.023 0.023 0.023 0.023 0.023 0.012 0.012 0.012 0.012 0.012 0.012 0.012 0.012 0.012 0.012 0.012 0.012 0.012 0.012 0.012 0.012 0.023 0.023 0.023 0.023 0.023 0.023 0.023 0.023 0.023 0.012 0.012 0.012 0.012 0.012 0.012 0.012 0.012 0.012 0.012 0.012 0.012 0.012 0.012 0.012 0.012 0.023 0.023 0.023 0.023 0.023 0.023 0.023 0.023 0.023 0.012 0.012 0.012 0.012 0.012 0.012 0.012 0.012 0.012 0.012 0.012 0.012 0.012 0.012 0.012 0.012 0.023 0.023 0.023 0.023 0.023 0.023 0.023 0.023 0.023 0.012 0.012 0.012 0.012 0.012 0.012 0.012 0.012 0.012 0.012 0.012 0.012 0.012 0.012 0.012 0.012 0.023 0.023 0.023 0.023 0.023 0.023 0.023 0.023 0.023 0.012 0.012 0.012 0.012 0.012 0.012 0.012 0.012 0.012 0.012 0.012 0.012 0.012 0.012 0.012 0.012 0.023 0.023 0.023 0.023 0.023 0.023 0.023 0.023 0.023 0.012 0.012 0.012 0.012 0.012 0.012 0.012 0.012 0.012 0.012 0.012 0.012 0.012 0.012 0.012 0.012 0.023 0.023 0.023 0.023 0.023 0.023 0.023 0.023 0.023 0.012 0.012 0.012 0.012 0.012 0.012 0.012 0.012 0.012 0.012 0.012 0.012 0.012 0.012 0.012 0.012 0.023 0.023 0.023 0.023 0.023 0.023 0.023 0.023 0.023 0.012 0.012 0.012 0.012 0.012 0.012 0.012 0.012 0.012 0.012 0.012 0.012 0.012 0.012 0.012 0.012 0.023 0.023 0.023 0.023 0.023 0.023 0.023 0.023 0.023 0.012 0.012 0.012 0.012 0.012 0.012 0.012 0.012 0.012 0.012 0.012 0.012 0.012 0.012 0.012 0.012 0.023 0.023 0.023 0.023 0.023 0.023 0.023 0.023 0.023 0.012 0.012 0.012 0.012 0.012 0.012 0.012 0.012 0.012 0.012 0.012 0.012 0.012 0.012 0.012 0.012 0.023 0.023 0.023 0.023 0.023 0.023 0.023 0.023 0.023 0.012 0.012 0.012 0.012 0.012 0.012 0.012 0.012 0.012 0.012 0.012 0.012 0.012 0.012 0.012 0.012 0.023 0.023 0.023 0.023 0.023 0.023 0.023 0.023 0.023 0.012 0.012 0.012 0.012 0.012 0.012 0.012 0.012 0.012 0.012 0.012 0.012 0.012 0.012 0.012 0.012 0.023 0.023 0.023 0.023 0.023 0.023 0.023 0.023 0.023 0.012 0.012 0.012 0.012 0.012 0.012 0.012 0.012 0.012 0.012 0.012 0.012 0.012 0.012 0.012 0.012 0.023 0.023 0.023 0.023 0.023 0.023 0.023 0.023 0.023 0.012 0.012 0.012 0.012 0.012 0.012 0.012 0.012 0.012 0.012 0.012 0.012 0.012 0.012 0.012 0.012 0.023 0.023 0.023 0.023 0.023 0.023 0.023 0.023 0.023 0.012 0.012 0.012 0.012 0.012 0.012 0.012 0.012 0.012 0.012 0.012 0.012 0.012 0.012 0.012 0.012 0.023 0.023 0.023 0.023 0.023 0.023 0.023 0.023 0.023 0.012 0.012 0.012 0.012 0.012 0.012 0.012 0.012 0.012 0.012 0.012 0.012 0.012 0.012 0.012 0.012 0.023 0.023 0.023 0.023 0.023 0.023 0.023 0.023 0.023 0.012 0.012 0.012 0.012 0.012 0.012 0.012 0.012 0.012 0.012 0.012 0.012 0.012 0.012 0.012 0.012 0.023 0.023 0.023 0.023 0.023 0.023 0.023 0.023 0.023 0.012 0.012 0.012 0.012 0.012 0.012 0.012 0.012 0.012 0.012 0.012 0.012 0.012 0.012 0.012 0.012 0.023 0.023 0.023 0.023 0.023 0.023 0.023 0.023 0.023 0.012 0.012 0.012 0.012 0.012 0.012 0.012 0.012 0.012 0.012 0.012 0.012 0.012 0.012 0.012 0.012 0.023 0.023 0.023 0.023 0.023 0.023 0.023 0.023 0.023 0.012 0.012 0.012 0.012 0.012 0.012 0.012 0.012 0.012 0.012 0.012 0.012 0.012 0.012 0.012 0.012 0.023 0.023 0.023 0.023 0.023 0.023 0.023 0.023 0.023 0.012 0.012 0.012 0.012 0.012 0.012 0.012 0.012 0.012 0.012 0.012 0.012 0.012 0.012 0.012 0.012 0.023 0.023 0.023 0.023 0.023 0.023 0.023 0.023 0.023 0.012 0.012 0.012 0.012 0.012 0.012 0.012 0.012 0.012 0.012 0.012 0.012 0.012 0.012 0.012 0.012 0.023 0.023 0.023 0.023 0.023 0.023 0.023 0.023 0.023 0.012 0.012 0.012 0.012 0.012 0.012 0.012 0.012 0.012 0.012 0.012 0.012 0.012 0.012 0.012 0.012 0.023 0.023 0.023 0.023 0.023 0.023 0.023 0.023 0.023 0.012 0.012 0.012 0.012 0.012 0.012 0.012 0.012 0.012 0.012 0.012 0.012 0.012 0.012 0.012 0.012 0.023 0.023 0.023 0.023 0.023 0.023 0.023 0.023 0.023 0.012 0.012 0.012 0.012 0.012 0.012 0.012 0.012 0.012 0.012 0.012 0.012 0.012 0.012 0.012 0.012 0.023 0.023 0.023 0.023 0.023 0.023 0.023 0.023 0.023 0.012 0.012 0.012 0.012 0.012 0.012 0.012 0.012 0.012 0.012 0.012 0.012 0.012 0.012 0.012 0.012 0.023 0.023 0.023 0.023 0.023 0.023 0.023 0.023 0.023 0.012 0.012 0.012 0.012 0.012 0.012 0.012 0.012 0.012 0.012 0.012 0.012 0.012 0.012 0.012 0.012 0.023 0.023 0.023 0.023 0.023 0.023 0.023 0.023 0.023 0.012 0.012 0.012 0.012 0.012 0.012 0.012 0.012 0.012 0.012 0.012 0.012 0.012 0.012 0.012 0.012 0.023 0.023 0.023 0.023 0.023 0.023 0.023 0.023 0.023 0.012 0.012 0.012 0.012 0.012 0.012 0.012 0.012 0.012 0.012 0.012 0.012 0.012 0.012 0.012 0.012 0.023 0.023 0.023 0.023 0.023 0.023 0.023 0.023 0.023 0.012 0.012 0.012 0.012 0.012 0.012 0.012 0.012 0.012 0.012 0.012 0.012 0.012 0.012 0.012 0.012 0.023 0.023 0.023 0.023 0.023 0.023 0.023 0.023 0.023 0.012 0.012 0.012 0.012 0.012 0.012 0.012 0.012 0.012 0.012 0.012 0.012 0.012 0.012 0.012 0.012 0.023 0.023 0.023 0.023 0.023 0.023 0.023 0.023 0.023 0.012 0.012 0.012 0.012 0.012 0.012 0.012 0.012 0.012 0.012 0.012 0.012 0.012 0.012 0.012 0.012 0.023 0.023 0.023 0.023 0.023 0.023 0.023 0.023 0.023 0.012 0.012 0.012 0.012 0.012 0.012 0.012 0.012 0.012 0.012 0.012 0.012 0.012 0.012 0.012 0.012 0.023 0.023 0.023 0.023 0.023 0.023 0.023 0.023 0.023 0.012 0.012 0.012 0.012 0.012 0.012 0.012 0.012 0.012 0.012 0.012 0.012 0.012 0.012 0.012 0.012 0.023 0.023 0.023 0.023 0.023 0.023 0.023 0.023 0.023 0.012 0.012 0.012 0.012 0.012 0.012 0.012 0.012 0.012 0.012 0.012 0.012 0.012 0.012 0.012 0.012 0.023 0.023 0.023 0.023 0.023 0.023 0.023 0.023 0.023 0.012 0.012 0.012 0.012 0.012 0.012 0.012 0.012 0.012 0.012 0.012 0.012 0.012 0.012 0.012 0.012 0.023 0.023 0.023 0.023 0.023 0.023 0.023 0.023 0.023 0.012 0.012 0.012 0.012 0.012 0.012 0.012 0.012 0.012 0.012 0.012 0.012 0.012 0.012 0.012 0.012 0.023 0.023 0.023 0.023 0.023 0.023 0.023 0.023 0.023 0.012 0.012 0.012 0.012 0.012 0.012 0.012 0.012 0.012 0.012 0.012 0.012 0.012 0.012 0.012 0.012 0.023 0.023 0.023 0.023 0.023 0.023 0.023 0.023 0.023 0.012 0.012 0.012 0.012 0.012 0.012 0.012 0.012 0.012 0.012 0.012 0.012 0.012 0.012 0.012 0.012 0.023 0.023 0.023 0.023 0.023 0.023 0.023 0.023 0.023 0.012 0.012 0.012 0.012 0.012 0.012 0.012 0.012 0.012 0.012 0.012 0.012 0.012 0.012 0.012 0.012 0.023 0.023 0.023 0.023 0.023 0.023 0.023 0.023 0.023 0.012 0.012 0.012 0.012 0.012 0.012 0.012 0.012 0.012 0.012 0.012 0.012 0.012 0.012 0.012 0.012 0.023 0.023 0.023 0.023 0.023 0.023 0.023 0.023 0.023 0.012 0.012 0.012 0.012 0.012 0.012 0.012 0.012 0.012 0.012 0.012 0.012 0.012 0.012 0.012 0.012 0.023 0.023 0.023 0.023 0.023 0.023 0.023 0.023 0.023 0.012 0.012 0.012 0.012 0.012 0.012 0.012 0.012 0.012 0.012 0.012 0.012 0.012 0.012 0.012 0.012 0.023 0.023 0.023 0.023 0.023 0.023 0.023 0.023 0.023 0.012 0.012 0.012 0.012 0.012 0.012 0.012 0.012 0.012 0.012 0.012 0.012 0.012 0.012 0.012 0.012 0.023 0.023 0.023 0.023 0.023 0.023 0.023 0.023 0.023 0.012 0.012 0.012 0.012 0.012 0.012 0.012 0.012 0.012 0.012 0.012 0.012 0.012 0.012 0.012 0.012 0.023 0.023 0.023 0.023 0.023 0.023 0.023 0.023 0.023 0.012 0.012 0.012 0.012 0.012 0.012 0.012 0.012 0.012 0.012 0.012 0.012 0.012 0.012 0.012 0.012 0.023 0.023 0.023 0.023 0.023 0.023 0.023 0.023 0.023 0.012 0.012 0.012 0.012 0.012 0.012 0.012 0.012 0.012 0.012 0.012 0.012 0.012 0.012 0.012 0.012 0.023 0.023 0.023 0.023 0.023 0.023 0.023 0.023 0.023 0.012 0.012 0.012 0.012 0.012 0.012 0.012 0.012 0.012 0.012 0.012 0.012 0.012 0.012 0.012 0.012 0.023 0.023 0.023 0.023 0.023 0.023 0.023 0.023 0.023 0.012 0.012 0.012 0.012 0.012 0.012 0.012 0.012 0.012 0.012 0.012 0.012 0.012 0.012 0.012 0.012 0.023 0.023 0.023 0.023 0.023 0.023 0.023 0.023 0.023 0.012 0.012 0.012 0.012 0.012 0.012 0.012 0.012 0.012 0.012 0.012 0.012 0.012 0.012 0.012 0.012 0.023 0.023 0.023 0.023 0.023 0.023 0.023 0.023 0.023 0.012 0.012 0.012 0.012 0.012 0.012 0.012 0.012 0.012 0.012 0.012 0.012 0.012 0.012 0.012 0.012 0.023 0.023 0.023 0.023 0.023 0.023 0.023 0.023 0.023 0.012 0.012 0.012 0.012 0.012 0.012 0.012 0.012 0.012 0.012 0.012 0.012 0.012 0.012 0.012 0.012 0.023 0.023 0.023 0.023 0.023 0.023 0.023 0.023 0.023 0.012 0.012 0.012 0.012 0.012 0.012 0.012 0.012 0.012 0.012 0.012 0.012 0.012 0.012 0.012 0.012 0.023 0.023 0.023 0.023 0.023 0.023 0.023 0.023 0.023 0.012 0.012 0.012 0.012 0.012 0.012 0.012 0.012 0.012 0.012 0.012 0.012 0.012 0.012 0.012 0.012 0.023 0.023 0.023 0.023 0.023 0.023 0.023 0.023 0.023 0.012 0.012 0.012 0.012 0.012 0.012 0.012 0.012 0.012 0.012 0.012 0.012 0.012 0.012 0.012 0.012 0.023 0.023 0.023 0.023 0.023 0.023 0.023 0.023 0.023 0.012 0.012 0.012 0.012 0.012 0.012 0.012 0.012 0.012 0.012 0.012 0.012 0.012 0.012 0.012 0.012 0.023 0.023 0.023 0.023 0.023 0.023 0.023 0.023 0.023 0.012 0.012 0.012 0.012 0.012 0.012 0.012 0.012 0.012 0.012 0.012 0.012 0.012 0.012 0.012 0.012 0.023 0.023 0.023 0.023 0.023 0.023 0.023 0.023 0.023 0.012 0.012 0.012 0.012 0.012 0.012 0.012 0.012 0.012 0.012 0.012 0.012 0.012 0.012 0.012 0.012 0.023 0.023 0.023 0.023 0.023 0.023 0.023 0.023 0.023 0.012 0.012 0.012 0.012 0.012 0.012 0.012 0.012 0.012 0.012 0.012 0.012 0.012 0.012 0.012 0.012 0.023 0.023 0.023 0.023 0.023 0.023 0.023 0.023 0.023 0.012 0.012 0.012 0.012 0.012 0.012 0.012 0.012 0.012 0.012 0.012 0.012 0.012 0.012 0.012 0.012 0.023 0.023 0.023 0.023 0.023 0.023 0.023 0.023 0.023 0.012 0.012 0.012 0.012 0.012 0.012 0.012 0.012 0.012 0.012 0.012 0.012 0.012 0.012 0.012 0.012 0.023 0.023 0.023 0.023 0.023 0.023 0.023 0.023 0.023 0.012 0.012 0.012 0.012 0.012 0.012 0.012 0.012 0.012 0.012 0.012 0.012 0.012 0.012 0.012 0.012 0.023 0.023 0.023 0.023 0.023 0.023 0.023 0.023 0.023 0.012 0.012 0.012 0.012 0.012 0.012 0.012 0.012 0.012 0.012 0.012 0.012 0.012 0.012 0.012 0.012 0.023 0.023 0.023 0.023 0.023 0.023 0.023 0.023 0.023 0.012 0.012 0.012 0.012 0.012 0.012 0.012 0.012 0.012 0.012 0.012 0.012 0.012 0.012 0.012 0.012 0.023 0.023 0.023 0.023 0.023 0.023 0.023 0.023 0.023 0.012 0.012 0.012 0.012 0.012 0.012 0.012 0.012 0.012 0.012 0.012 0.012 0.012 0.012 0.012 0.012 0.023 0.023 0.023 0.023 0.023 0.023 0.023 0.023 0.023 0.012 0.012 0.012 0.012 0.012 0.012 0.012 0.012 0.012 0.012 0.012 0.012 0.012 0.012 0.012 0.012 0.023 0.023 0.023 0.023 0.023 0.023 0.023 0.023 0.023 0.012 0.012 0.012 0.012 0.012 0.012 0.012 0.012 0.012 0.012 0.012 0.012 0.012 0.012 0.012 0.012 0.023 0.023 0.023 0.023 0.023 0.023 0.023 0.023 0.023 0.012 0.012 0.012 0.012 0.012 0.012 0.012 0.012 0.012 0.012 0.012 0.012 0.012 0.012 0.012 0.012 0.023 0.023 0.023 0.023 0.023 0.023 0.023 0.023 0.023 0.012 0.012 0.012 0.012 0.012 0.012 0.012 0.012 0.012 0.012 0.012 0.012 0.012 0.012 0.012 0.012 0.023 0.023 0.023 0.023 0.023 0.023 0.023 0.023 0.023 0.012 0.012 0.012 0.012 0.012 0.012 0.012 0.012 0.012 0.012 0.012 0.012 0.012 0.012 0.012 0.012 0.023 0.023 0.023 0.023 0.023 0.023 0.023 0.023 0.023 0.012 0.012 0.012 0.012 0.012 0.012 0.012 0.012 0.012 0.012 0.012 0.012 0.012 0.012 0.012 0.012 0.023 0.023 0.023 0.023 0.023 0.023 0.023 0.023 0.023 0.012 0.012 0.012 0.012 0.012 0.012 0.012 0.012 0.012 0.012 0.012 0.012 0.012 0.012 0.012 0.012 0.023 0.023 0.023 0.023 0.023 0.023 0.023 0.023 0.023 0.012 0.012 0.012 0.012 0.012 0.012 0.012 0.012 0.012 0.012 0.012 0.012 0.012 0.012 0.012 0.012 0.023 0.023 0.023 0.023 0.023 0.023 0.023 0.023 0.023 0.012 0.012 0.012 0.012 0.012 0.012 0.012 0.012 0.012 0.012 0.012 0.012 0.012 0.012 0.012 0.012 0.023 0.023 0.023 0.023 0.023 0.023 0.023 0.023 0.023 0.012 0.012 0.012 0.012 0.012 0.012 0.012 0.012 0.012 0.012 0.012 0.012 0.012 0.012 0.012 0.012 0.023 0.023 0.023 0.023 0.023 0.023 0.023 0.023 0.023 0.012 0.012 0.012 0.012 0.012 0.012 0.012 0.012 0.012 0.012 0.012 0.012 0.012 0.012 0.012 0.012 0.023 0.023 0.023 0.023 0.023 0.023 0.023 0.023 0.023 0.012 0.012 0.012 0.012 0.012 0.012 0.012 0.012 0.012 0.012 0.012 0.012 0.012 0.012 0.012 0.012 0.023 0.023 0.023 0.023 0.023 0.023 0.023 0.023 0.023 0.012 0.012 0.012 0.012 0.012 0.012 0.012 0.012 0.012 0.012 0.012 0.012 0.012 0.012 0.012 0.012 0.023 0.023 0.023 0.023 0.023 0.023 0.023 0.023 0.023 0.012 0.012 0.012 0.012 0.012 0.012 0.012 0.012 0.012 0.012 0.012 0.012 0.012 0.012 0.012 0.012 0.023 0.023 0.023 0.023 0.023 0.023 0.023 0.023 0.023 0.012 0.012 0.012 0.012 0.012 0.012 0.012 0.012 0.012 0.012 0.012 0.012 0.012 0.012 0.012 0.012 0.023 0.023 0.023 0.023 0.023 0.023 0.023 0.023 0.023 0.012 0.012 0.012 0.012 0.012 0.012 0.012 0.012 0.012 0.012 0.012 0.012 0.012 0.012 0.012 0.012 0.023 0.023 0.023 0.023 0.023 0.023 0.023 0.023 0.023 0.012 0.012 0.012 0.012 0.012 0.012 0.012 0.012 0.012 0.012 0.012 0.012 0.012 0.012 0.012 0.012 0.023 0.023 0.023 0.023 0.023 0.023 0.023 0.023 0.023 0.012 0.012 0.012 0.012 0.012 0.012 0.012 0.012 0.012 0.012 0.012 0.012 0.012 0.012 0.012 0.012 0.023 0.023 0.023 0.023 0.023 0.023 0.023 0.023 0.023 0.012 0.012 0.012 0.012 0.012 0.012 0.012 0.012 0.012 0.012 0.012 0.012 0.012 0.012 0.012 0.012 0.023 0.023 0.023 0.023 0.023 0.023 0.023 0.023 0.023 0.012 0.012 0.012 0.012 0.012 0.012 0.012 0.012 0.012 0.012 0.012 0.012 0.012 0.012 0.012 0.012 0.023 0.023 0.023 0.023 0.023 0.023 0.023 0.023 0.023 0.012 0.012 0.012 0.012 0.012 0.012 0.012 0.012 0.012 0.012 0.012 0.012 0.012 0.012 0.012 0.012 0.023 0.023 0.023 0.023 0.023 0.023 0.023 0.023 0.023 0.012 0.012 0.012 0.012 0.012 0.012 0.012 0.012 0.012 0.012 0.012 0.012 0.012 0.012 0.012 0.012 0.023 0.023 0.023 0.023 0.023 0.023 0.023 0.023 0.023 0.012 0.012 0.012 0.012 0.012 0.012 0.012 0.012 0.012 0.012 0.012 0.012 0.012 0.012 0.012 0.012 0.023 0.023 0.023 0.023 0.023 0.023 0.023 0.023 0.023 0.012 0.012 0.012 0.012 0.012 0.012 0.012 0.012 0.012 0.012 0.012 0.012 0.012 0.012 0.012 0.012 0.023 0.023 0.023 0.023 0.023 0.023 0.023 0.023 0.023 0.012 0.012 0.012 0.012 0.012 0.012 0.012 0.012 0.012 0.012 0.012 0.012 0.012 0.012 0.012 0.012 0.023 0.023 0.023 0.023 0.023 0.023 0.023 0.023 0.023 0.012 0.012 0.012 0.012 0.012 0.012 0.012 0.012 0.012 0.012 0.012 0.012 0.012 0.012 0.012 0.012 0.023 0.023 0.023 0.023 0.023 0.023 0.023 0.023 0.023 0.012 0.012 0.012 0.012 0.012 0.012 0.012 0.012 0.012 0.012 0.012 0.012 0.012 0.012 0.012 0.012 0.023 0.023 0.023 0.023 0.023 0.023 0.023 0.023 0.023 0.012 0.012 0.012 0.012 0.012 0.012 0.012 0.012 0.012 0.012 0.012 0.012 0.012 0.012 0.012 0.012 0.023 0.023 0.023 0.023 0.023 0.023 0.023 0.023 0.023 0.012 0.012 0.012 0.012 0.012 0.012 0.012 0.012 0.012 0.012 0.012 0.012 0.012 0.012 0.012 0.012 0.023 0.023 0.023 0.023 0.023 0.023 0.023 0.023 0.023 0.012 0.012 0.012 0.012 0.012 0.012 0.012 0.012 0.012 0.012 0.012 0.012 0.012 0.012 0.012 0.012 0.023 0.023 0.023 0.023 0.023 0.023 0.023 0.023 0.023 0.012 0.012 0.012 0.012 0.012 0.012 0.012 0.012 0.012 0.012 0.012 0.012 0.012 0.012 0.012 0.012 0.023 0.023 0.023 0.023 0.023 0.023 0.023 0.023 0.023 0.012 0.012 0.012 0.012 0.012 0.012 0.012 0.012 0.012 0.012 0.012 0.012 0.012 0.012 0.012 0.012 0.023 0.023 0.023 0.023 0.023 0.023 0.023 0.023 0.023 0.012 0.012 0.012 0.012 0.012 0.012 0.012 0.012 0.012 0.012 0.012 0.012 0.012 0.012 0.012 0.012 0.023 0.023 0.023 0.023 0.023 0.023 0.023 0.023 0.023 0.012 0.012 0.012 0.012 0.012 0.012 0.012 0.012 0.012 0.012 0.012 0.012 0.012 0.012 0.012 0.012 0.023 0.023 0.023 0.023 0.023 0.023 0.023 0.023 0.023 0.012 0.012 0.012 0.012 0.012 0.012 0.012 0.012 0.012 0.012 0.012 0.012 0.012 0.012 0.012 0.012 0.023 0.023 0.023 0.023 0.023 0.023 0.023 0.023 0.023 0.012 0.012 0.012 0.012 0.012 0.012 0.012 0.012 0.012 0.012 0.012 0.012 0.012 0.012 0.012 0.012 0.023 0.023 0.023 0.023 0.023 0.023 0.023 0.023 0.023 0.012 0.012 0.012 0.012 0.012 0.012 0.012 0.012 0.012 0.012 0.012 0.012 0.012 0.012 0.012 0.012 0.023 0.023 0.023 0.023 0.023 0.023 0.023 0.023 0.023 0.012 0.012 0.012 0.012 0.012 0.012 0.012 0.012 0.012 0.012 0.012 0.012 0.012 0.012 0.012 0.012 0.023 0.023 0.023 0.023 0.023 0.023 0.023 0.023 0.023 0.012 0.012 0.012 0.012 0.012 0.012 0.012 0.012 0.012 0.012 0.012 0.012 0.012 0.012 0.012 0.012 0.023 0.023 0.023 0.023 0.023 0.023 0.023 0.023 0.023 0.012 0.012 0.012 0.012 0.012 0.012 0.012 0.012 0.012 0.012 0.012 0.012 0.012 0.012 0.012 0.012 0.023 0.023 0.023 0.023 0.023 0.023 0.023 0.023 0.023 0.012 0.012 0.012 0.012 0.012 0.012 0.012 0.012 0.012 0.012 0.012 0.012 0.012 0.012 0.012 0.012 0.023 0.023 0.023 0.023 0.023 0.023 0.023 0.023 0.023 0.012 0.012 0.012 0.012 0.012 0.012 0.012 0.012 0.012 0.012 0.012 0.012 0.012 0.012 0.012 0.012 0.023 0.023 0.023 0.023 0.023 0.023 0.023 0.023 0.023 0.012 0.012 0.012 0.012 0.012 0.012 0.012 0.012 0.012 0.012 0.012 0.012 0.012 0.012 0.012 0.012 0.023 0.023 0.023 0.023 0.023 0.023 0.023 0.023 0.023 0.012 0.012 0.012 0.012 0.012 0.012 0.012 0.012 0.012 0.012 0.012 0.012 0.012 0.012 0.012 0.012 0.023 0.023 0.023 0.023 0.023 0.023 0.023 0.023 0.023 0.012 0.012 0.012 0.012 0.012 0.012 0.012 0.012 0.012 0.012 0.012 0.012 0.012 0.012 0.012 0.012 0.023 0.023 0.023 0.023 0.023 0.023 0.023 0.023 0.023 0.012 0.012 0.012 0.012 0.012 0.012 0.012 0.012 0.012 0.012 0.012 0.012 0.012 0.012 0.012 0.012 0.023 0.023 0.023 0.023 0.023 0.023 0.023 0.023 0.023 0.012 0.012 0.012 0.012 0.012 0.012 0.012 0.012 0.012 0.012 0.012 0.012 0.012 0.012 0.012 0.012 0.023 0.023 0.023 0.023 0.023 0.023 0.023 0.023 0.023 0.012 0.012 0.012 0.012 0.012 0.012 0.012 0.012 0.012 0.012 0.012 0.012 0.012 0.012 0.012 0.012 0.023 0.023 0.023 0.023 0.023 0.023 0.023 0.023 0.023 0.012 0.012 0.012 0.012 0.012 0.012 0.012 0.012 0.012 0.012 0.012 0.012 0.012 0.012 0.012 0.012 0.023 0.023 0.023 0.023 0.023 0.023 0.023 0.023 0.023 0.012 0.012 0.012 0.012 0.012 0.012 0.012 0.012 0.012 0.012 0.012 0.012 0.012 0.012 0.012 0.012 0.023 0.023 0.023 0.023 0.023 0.023 0.023 0.023 0.023 0.012 0.012 0.012 0.012 0.012 0.012 0.012 0.012 0.012 0.012 0.012 0.012 0.012 0.012 0.012 0.012 0.023 0.023 0.023 0.023 0.023 0.023 0.023 0.023 0.023 0.012 0.012 0.012 0.012 0.012 0.012 0.012 0.012 0.012 0.012 0.012 0.012 0.012 0.012 0.012 0.012 0.023 0.023 0.023 0.023 0.023 0.023 0.023 0.023 0.023 0.012 0.012 0.012 0.012 0.012 0.012 0.012 0.012 0.012 0.012 0.012 0.012 0.012 0.012 0.012 0.012 0.023 0.023 0.023 0.023 0.023 0.023 0.023 0.023 0.023 0.012 0.012 0.012 0.012 0.012 0.012 0.012 0.012 0.012 0.012 0.012 0.012 0.012 0.012 0.012 0.012 0.023 0.023 0.023 0.023 0.023 0.023 0.023 0.023 0.023 0.012 0.012 0.012 0.012 0.012 0.012 0.012 0.012 0.012 0.012 0.012 0.012 0.012 0.012 0.012 0.012 0.023 0.023 0.023 0.023 0.023 0.023 0.023 0.023 0.023 0.012 0.012 0.012 0.012 0.012 0.012 0.012 0.012 0.012 0.012 0.012 0.012 0.012 0.012 0.012 0.012 0.023 0.023 0.023 0.023 0.023 0.023 0.023 0.023 0.023 0.012 0.012 0.012 0.012 0.012 0.012 0.012 0.012 0.012 0.012 0.012 0.012 0.012 0.012 0.012 0.012 0.023 0.023 0.023 0.023 0.023 0.023 0.023 0.023 0.023 0.012 0.012 0.012 0.012 0.012 0.012 0.012 0.012 0.012 0.012 0.012 0.012 0.012 0.012 0.012 0.012 0.023 0.023 0.023 0.023 0.023 0.023 0.023 0.023 0.023 0.012 0.012 0.012 0.012 0.012 0.012 0.012 0.012 0.012 0.012 0.012 0.012 0.012 0.012 0.012 0.012 0.023 0.023 0.023 0.023 0.023 0.023 0.023 0.023 0.023 0.012 0.012 0.012 0.012 0.012 0.012 0.012 0.012 0.012 0.012 0.012 0.012 0.012 0.012 0.012 0.012 0.023 0.023 0.023 0.023 0.023 0.023 0.023 0.023 0.023 0.012 0.012 0.012 0.012 0.012 0.012 0.012 0.012 0.012 0.012 0.012 0.012 0.012 0.012 0.012 0.012 0.023 0.023 0.023 0.023 0.023 0.023 0.023 0.023 0.023 0.012 0.012 0.012 0.012 0.012 0.012 0.012 0.012 0.012 0.012 0.012 0.012 0.012 0.012 0.012 0.012 0.023 0.023 0.023 0.023 0.023 0.023 0.023 0.023 0.023 0.012 0.012 0.012 0.012 0.012 0.012 0.012 0.012 0.012 0.012 0.012 0.012 0.012 0.012 0.012 0.012 0.023 0.023 0.023 0.023 0.023 0.023 0.023 0.023 0.023 0.012 0.012 0.012 0.012 0.012 0.012 0.012 0.012 0.012 0.012 0.012 0.012 0.012 0.012 0.012 0.012 0.023 0.023 0.023 0.023 0.023 0.023 0.023 0.023 0.023 0.012 0.012 0.012 0.012 0.012 0.012 0.012 0.012 0.012 0.012 0.012 0.012 0.012 0.012 0.012 0.012 0.023 0.023 0.023 0.023 0.023 0.023 0.023 0.023 0.023 0.012 0.012 0.012 0.012 0.012 0.012 0.012 0.012 0.012 0.012 0.012 0.012 0.012 0.012 0.012 0.012 0.023 0.023 0.023 0.023 0.023 0.023 0.023 0.023 0.023 0.012 0.012 0.012 0.012 0.012 0.012 0.012 0.012 0.012 0.012 0.012 0.012 0.012 0.012 0.012 0.012 0.023 0.023 0.023 0.023 0.023 0.023 0.023 0.023 0.023 0.012 0.012 0.012 0.012 0.012 0.012 0.012 0.012 0.012 0.012 0.012 0.012 0.012 0.012 0.012 0.012 0.023 0.023 0.023 0.023 0.023 0.023 0.023 0.023 0.023 0.012 0.012 0.012 0.012 0.012 0.012 0.012 0.012 0.012 0.012 0.012 0.012 0.012 0.012 0.012 0.012 0.023 0.023 0.023 0.023 0.023 0.023 0.023 0.023 0.023 0.012 0.012 0.012 0.012 0.012 0.012 0.012 0.012 0.012 0.012 0.012 0.012 0.012 0.012 0.012 0.012 0.023 0.023 0.023 0.023 0.023 0.023 0.023 0.023 0.023 0.012 0.012 0.012 0.012 0.012 0.012 0.012 0.012 0.012 0.012 0.012 0.012 0.012 0.012 0.012 0.012 0.023 0.023 0.023 0.023 0.023 0.023 0.023 0.023 0.023 0.012 0.012 0.012 0.012 0.012 0.012 0.012 0.012 0.012 0.012 0.012 0.012 0.012 0.012 0.012 0.012 0.023 0.023 0.023 0.023 0.023 0.023 0.023 0.023 0.023 0.012 0.012 0.012 0.012 0.012 0.012 0.012 0.012 0.012 0.012 0.012 0.012 0.012 0.012 0.012 0.012 0.023 0.023 0.023 0.023 0.023 0.023 0.023 0.023 0.023 0.012 0.012 0.012 0.012 0.012 0.012 0.012 0.012 0.012 0.012 0.012 0.012 0.012 0.012 0.012 0.012 0.023 0.023 0.023 0.023 0.023 0.023 0.023 0.023 0.023 0.012 0.012 0.012 0.012 0.012 0.012 0.012 0.012 0.012 0.012 0.012 0.012 0.012 0.012 0.012 0.012 0.023 0.023 0.023 0.023 0.023 0.023 0.023 0.023 0.023 0.012 0.012 0.012 0.012 0.012 0.012 0.012 0.012 0.012 0.012 0.012 0.012 0.012 0.012 0.012 0.012 0.023 0.023 0.023 0.023 0.023 0.023 0.023 0.023 0.023 0.012 0.012 0.012 0.012 0.012 0.012 0.012 0.012 0.012 0.012 0.012 0.012 0.012 0.012 0.012 0.012 0.023 0.023 0.023 0.023 0.023 0.023 0.023 0.023 0.023 0.012 0.012 0.012 0.012 