<?xml version="1.0"?><VTKFile type="PolyData" version="0.1" byte_order="LittleEndian">
<PolyData>
<Piece NumberOfLines="27350" NumberOfPoints="27351">
<CellData doubles=" CellData">
<DataArray type="Float32" Name="radius" NumberOfComponents="1" format="ascii" >
0.05375 0.05375 0.05375 0.05375 0.05375 0.05375 0.05375 0.05375 0.05375 0.05375 0.05375 0.05375 0.05375 0.05375 0.05375 0.05375 0.05375 0.05375 0.05375 0.05375 0.05375 0.05375 0.05375 0.05375 0.05375 0.05375 0.05375 0.05375 0.05375 0.05375 0.05375 0.05375 0.05375 0.05375 0.05375 0.05375 0.05375 0.05375 0.05375 0.05375 0.05375 0.05375 0.05375 0.05375 0.05375 0.05375 0.05375 0.05375 0.05375 0.05375 0.05375 0.05375 0.05375 0.05375 0.05375 0.05375 0.05375 0.05375 0.05375 0.05375 0.05375 0.05375 0.05375 0.05375 0.05375 0.05375 0.05375 0.05375 0.05375 0.05375 0.05375 0.05375 0.05375 0.05375 0.05375 0.05375 0.05375 0.05375 0.05375 0.05375 0.05375 0.05375 0.05375 0.05375 0.05375 0.05375 0.05375 0.05375 0.05375 0.05375 0.05375 0.05375 0.05375 0.05375 0.05375 0.05375 0.05375 0.05375 0.05375 0.05375 0.05375 0.05375 0.05375 0.05375 0.05375 0.05375 0.05375 0.05375 0.05375 0.05375 0.05375 0.05375 0.05375 0.05375 0.05375 0.05375 0.05375 0.05375 0.05375 0.05375 0.05375 0.05375 0.05375 0.05375 0.05375 0.05375 0.05375 0.05375 0.05375 0.05375 0.05375 0.05375 0.05375 0.05375 0.05375 0.05375 0.05375 0.05375 0.05375 0.05375 0.05375 0.05375 0.05375 0.05375 0.05375 0.05375 0.05375 0.05375 0.05375 0.05375 0.05375 0.05375 0.05375 0.05375 0.05375 0.05375 0.05375 0.05375 0.05375 0.05375 0.05375 0.05375 0.05375 0.05375 0.05375 0.05375 0.05375 0.05375 0.05375 0.05375 0.05375 0.05375 0.05375 0.05375 0.05375 0.05375 0.05375 0.05375 0.05375 0.05375 0.05375 0.05375 0.05375 0.05375 0.05375 0.05375 0.05375 0.05375 0.05375 0.05375 0.05375 0.05375 0.05375 0.05375 0.05375 0.05375 0.05375 0.05375 0.05375 0.05375 0.05375 0.05375 0.05375 0.05375 0.05375 0.05375 0.05375 0.05375 0.05375 0.05375 0.05375 0.05375 0.05375 0.05375 0.05375 0.05375 0.05375 0.05375 0.05375 0.05375 0.05375 0.05375 0.05375 0.05375 0.05375 0.05375 0.05375 0.05375 0.05375 0.05375 0.05375 0.05375 0.05375 0.05375 0.05375 0.05375 0.05375 0.05375 0.05375 0.05375 0.05375 0.05375 0.05375 0.05375 0.05375 0.05375 0.05375 0.05375 0.05375 0.05375 0.05375 0.05375 0.05375 0.05375 0.05375 0.05375 0.05375 0.05375 0.05375 0.05375 0.05375 0.05375 0.05375 0.05375 0.05375 0.05375 0.05375 0.05375 0.05375 0.05375 0.05375 0.05375 0.05375 0.05375 0.05375 0.05375 0.05375 0.05375 0.05375 0.05375 0.05375 0.05375 0.05375 0.05375 0.05375 0.05375 0.05375 0.05375 0.05375 0.05375 0.05375 0.05375 0.05375 0.05375 0.05375 0.05375 0.05375 0.05375 0.05375 0.05375 0.05375 0.05375 0.05375 0.05375 0.05375 0.05375 0.05375 0.05375 0.05375 0.05375 0.05375 0.05375 0.011875 0.011875 0.011875 0.011875 0.011875 0.011875 0.011875 0.011875 0.011875 0.011875 0.011875 0.011875 0.011875 0.011875 0.011875 0.011875 0.011875 0.011875 0.011875 0.011875 0.011875 0.011875 0.011875 0.011875 0.011875 0.011875 0.011875 0.011875 0.011875 0.011875 0.011875 0.011875 0.011875 0.011875 0.011875 0.011875 0.011875 0.011875 0.011875 0.011875 0.011875 0.011875 0.011875 0.011875 0.011875 0.011875 0.011875 0.011875 0.011875 0.011875 0.011875 0.011875 0.011875 0.011875 0.011875 0.011875 0.011875 0.011875 0.011875 0.011875 0.011875 0.011875 0.011875 0.011875 0.011875 0.011875 0.011875 0.011875 0.011875 0.011875 0.011875 0.011875 0.011875 0.011875 0.011875 0.011875 0.011875 0.011875 0.011875 0.011875 0.011875 0.011875 0.011875 0.011875 0.011875 0.011875 0.011875 0.011875 0.011875 0.011875 0.011875 0.011875 0.011875 0.011875 0.011875 0.011875 0.011875 0.011875 0.011875 0.011875 0.011875 0.011875 0.011875 0.011875 0.011875 0.011875 0.011875 0.011875 0.011875 0.011875 0.011875 0.011875 0.011875 0.011875 0.011875 0.011875 0.011875 0.011875 0.011875 0.011875 0.011875 0.011875 0.011875 0.011875 0.011875 0.011875 0.011875 0.011875 0.011875 0.011875 0.011875 0.011875 0.011875 0.011875 0.011875 0.011875 0.011875 0.011875 0.011875 0.011875 0.011875 0.011875 0.011875 0.011875 0.011875 0.011875 0.011875 0.011875 0.011875 0.011875 0.011875 0.011875 0.011875 0.011875 0.011875 0.011875 0.011875 0.011875 0.011875 0.011875 0.011875 0.011875 0.011875 0.011875 0.011875 0.011875 0.011875 0.011875 0.011875 0.011875 0.011875 0.011875 0.011875 0.011875 0.011875 0.011875 0.011875 0.011875 0.011875 0.011875 0.011875 0.011875 0.011875 0.011875 0.011875 0.011875 0.011875 0.011875 0.011875 0.011875 0.011875 0.011875 0.011875 0.011875 0.011875 0.011875 0.011875 0.011875 0.011875 0.011875 0.011875 0.011875 0.011875 0.011875 0.011875 0.011875 0.011875 0.011875 0.011875 0.011875 0.011875 0.011875 0.011875 0.011875 0.011875 0.011875 0.011875 0.011875 0.011875 0.011875 0.011875 0.011875 0.011875 0.011875 0.011875 0.011875 0.011875 0.011875 0.011875 0.011875 0.011875 0.011875 0.011875 0.011875 0.011875 0.011875 0.011875 0.011875 0.011875 0.011875 0.011875 0.011875 0.011875 0.011875 0.011875 0.011875 0.011875 0.011875 0.011875 0.011875 0.011875 0.011875 0.011875 0.011875 0.011875 0.011875 0.011875 0.011875 0.011875 0.011875 0.011875 0.011875 0.011875 0.011875 0.011875 0.011875 0.011875 0.011875 0.011875 0.011875 0.0175 0.0175 0.0175 0.0175 0.0175 0.011875 0.011875 0.011875 0.011875 0.011875 0.011875 0.011875 0.011875 0.011875 0.011875 0.011875 0.011875 0.011875 0.0175 0.0175 0.0175 0.0175 0.0175 0.0175 0.011875 0.011875 0.011875 0.011875 0.011875 0.011875 0.011875 0.011875 0.011875 0.011875 0.011875 0.011875 0.011875 0.0175 0.0175 0.0175 0.0175 0.0175 0.011875 0.011875 0.011875 0.011875 0.011875 0.011875 0.011875 0.011875 0.011875 0.011875 0.011875 0.011875 0.011875 0.011875 0.011875 0.011875 0.011875 0.011875 0.011875 0.011875 0.011875 0.011875 0.011875 0.011875 0.011875 0.011875 0.011875 0.011875 0.011875 0.0175 0.0175 0.0175 0.0175 0.0175 0.0175 0.011875 0.011875 0.011875 0.011875 0.011875 0.011875 0.011875 0.011875 0.011875 0.011875 0.011875 0.011875 0.0175 0.0175 0.0175 0.0175 0.0175 0.0175 0.0175 0.011875 0.011875 0.011875 0.011875 0.011875 0.011875 0.011875 0.011875 0.011875 0.011875 0.011875 0.011875 0.011875 0.011875 0.0175 0.0175 0.0175 0.0175 0.0175 0.0175 0.0175 0.011875 0.011875 0.011875 0.011875 0.011875 0.011875 0.011875 0.011875 0.011875 0.011875 0.011875 0.011875 0.011875 0.011875 0.011875 0.0175 0.0175 0.0175 0.0175 0.0175 0.0175 0.011875 0.011875 0.011875 0.011875 0.011875 0.011875 0.0175 0.0175 0.0175 0.0175 0.0175 0.0175 0.011875 0.011875 0.011875 0.011875 0.011875 0.011875 0.0175 0.0175 0.0175 0.0175 0.0175 0.0175 0.011875 0.011875 0.011875 0.011875 0.011875 0.011875 0.0175 0.0175 0.0175 0.0175 0.0175 0.0175 0.011875 0.011875 0.011875 0.011875 0.011875 0.011875 0.0175 0.0175 0.0175 0.0175 0.0175 0.0175 0.011875 0.011875 0.011875 0.011875 0.011875 0.011875 0.0175 0.0175 0.0175 0.0175 0.0175 0.0175 0.011875 0.011875 0.011875 0.011875 0.011875 0.011875 0.0175 0.0175 0.0175 0.0175 0.0175 0.0175 0.011875 0.011875 0.011875 0.011875 0.011875 0.011875 0.0175 0.0175 0.0175 0.0175 0.0175 0.0175 0.011875 0.011875 0.011875 0.011875 0.011875 0.011875 0.0175 0.0175 0.0175 0.0175 0.0175 0.0175 0.011875 0.011875 0.011875 0.011875 0.011875 0.011875 0.0175 0.0175 0.0175 0.0175 0.0175 0.0175 0.011875 0.011875 0.011875 0.011875 0.011875 0.011875 0.0175 0.0175 0.0175 0.0175 0.0175 0.0175 0.011875 0.011875 0.011875 0.011875 0.011875 0.011875 0.0175 0.0175 0.0175 0.0175 0.0175 0.0175 0.011875 0.011875 0.011875 0.011875 0.011875 0.011875 0.0175 0.0175 0.0175 0.0175 0.0175 0.0175 0.011875 0.011875 0.011875 0.011875 0.011875 0.011875 0.0175 0.0175 0.0175 0.0175 0.0175 0.0175 0.011875 0.011875 0.011875 0.011875 0.011875 0.011875 0.0175 0.0175 0.0175 0.0175 0.0175 0.0175 0.011875 0.011875 0.011875 0.011875 0.011875 0.011875 0.0175 0.0175 0.0175 0.0175 0.0175 0.0175 0.011875 0.011875 0.011875 0.011875 0.011875 0.011875 0.0175 0.0175 0.0175 0.0175 0.0175 0.0175 0.011875 0.011875 0.011875 0.011875 0.011875 0.011875 0.0175 0.0175 0.0175 0.0175 0.0175 0.0175 0.011875 0.011875 0.011875 0.011875 0.011875 0.011875 0.0175 0.0175 0.0175 0.0175 0.0175 0.0175 0.011875 0.011875 0.011875 0.011875 0.011875 0.011875 0.0175 0.0175 0.0175 0.0175 0.0175 0.0175 0.011875 0.011875 0.011875 0.011875 0.011875 0.011875 0.0175 0.0175 0.0175 0.0175 0.0175 0.0175 0.011875 0.011875 0.011875 0.011875 0.011875 0.011875 0.0175 0.0175 0.0175 0.0175 0.0175 0.0175 0.011875 0.011875 0.011875 0.011875 0.011875 0.011875 0.0175 0.0175 0.0175 0.0175 0.0175 0.0175 0.011875 0.011875 0.011875 0.011875 0.011875 0.011875 0.0175 0.0175 0.0175 0.0175 0.0175 0.0175 0.011875 0.011875 0.011875 0.011875 0.011875 0.011875 0.0175 0.0175 0.0175 0.0175 0.0175 0.0175 0.011875 0.011875 0.011875 0.011875 0.011875 0.011875 0.0175 0.0175 0.0175 0.0175 0.0175 0.0175 0.011875 0.011875 0.011875 0.011875 0.011875 0.011875 0.0175 0.0175 0.0175 0.0175 0.0175 0.0175 0.011875 0.011875 0.011875 0.011875 0.011875 0.011875 0.0175 0.0175 0.0175 0.0175 0.0175 0.0175 0.011875 0.011875 0.011875 0.011875 0.011875 0.011875 0.0175 0.0175 0.0175 0.0175 0.0175 0.0175 0.011875 0.011875 0.011875 0.011875 0.011875 0.011875 0.0175 0.0175 0.0175 0.0175 0.0175 0.0175 0.011875 0.011875 0.011875 0.011875 0.011875 0.011875 0.0175 0.0175 0.0175 0.0175 0.0175 0.0175 0.011875 0.011875 0.011875 0.011875 0.011875 0.011875 0.0175 0.0175 0.0175 0.0175 0.0175 0.0175 0.011875 0.011875 0.011875 0.011875 0.011875 0.011875 0.0175 0.0175 0.0175 0.0175 0.0175 0.0175 0.011875 0.011875 0.011875 0.011875 0.011875 0.011875 0.0175 0.0175 0.0175 0.0175 0.0175 0.0175 0.011875 0.011875 0.011875 0.011875 0.011875 0.011875 0.0175 0.0175 0.0175 0.0175 0.0175 0.0175 0.011875 0.011875 0.011875 0.011875 0.011875 0.011875 0.0175 0.0175 0.0175 0.0175 0.0175 0.0175 0.011875 0.011875 0.011875 0.011875 0.011875 0.011875 0.0175 0.0175 0.0175 0.0175 0.0175 0.0175 0.011875 0.011875 0.011875 0.011875 0.011875 0.011875 0.0175 0.0175 0.0175 0.0175 0.0175 0.0175 0.011875 0.011875 0.011875 0.011875 0.011875 0.011875 0.0175 0.0175 0.0175 0.0175 0.0175 0.0175 0.011875 0.011875 0.011875 0.011875 0.011875 0.011875 0.0175 0.0175 0.0175 0.0175 0.0175 0.0175 0.011875 0.011875 0.011875 0.011875 0.011875 0.011875 0.0175 0.0175 0.0175 0.0175 0.0175 0.0175 0.011875 0.011875 0.011875 0.011875 0.011875 0.011875 0.0175 0.0175 0.0175 0.0175 0.0175 0.0175 0.011875 0.011875 0.011875 0.011875 0.011875 0.011875 0.0175 0.0175 0.0175 0.0175 0.0175 0.0175 0.011875 0.011875 0.011875 0.011875 0.011875 0.011875 0.0175 0.0175 0.0175 0.0175 0.0175 0.0175 0.011875 0.011875 0.011875 0.011875 0.011875 0.011875 0.0175 0.0175 0.0175 0.0175 0.0175 0.0175 0.011875 0.011875 0.011875 0.011875 0.011875 0.011875 0.0175 0.0175 0.0175 0.0175 0.0175 0.0175 0.011875 0.011875 0.011875 0.011875 0.011875 0.011875 0.0175 0.0175 0.0175 0.0175 0.0175 0.0175 0.011875 0.011875 0.011875 0.011875 0.011875 0.011875 0.0175 0.0175 0.0175 0.0175 0.0175 0.0175 0.011875 0.011875 0.011875 0.011875 0.011875 0.011875 0.0175 0.0175 0.0175 0.0175 0.0175 0.0175 0.011875 0.011875 0.011875 0.011875 0.011875 0.011875 0.0175 0.0175 0.0175 0.0175 0.0175 0.0175 0.011875 0.011875 0.011875 0.011875 0.011875 0.011875 0.0175 0.0175 0.0175 0.0175 0.0175 0.0175 0.011875 0.011875 0.011875 0.011875 0.011875 0.011875 0.0175 0.0175 0.0175 0.0175 0.0175 0.0175 0.011875 0.011875 0.011875 0.011875 0.011875 0.011875 0.0175 0.0175 0.0175 0.0175 0.0175 0.0175 0.011875 0.011875 0.011875 0.011875 0.011875 0.011875 0.0175 0.0175 0.0175 0.0175 0.0175 0.0175 0.011875 0.011875 0.011875 0.011875 0.011875 0.011875 0.0175 0.0175 0.0175 0.0175 0.0175 0.0175 0.011875 0.011875 0.011875 0.011875 0.011875 0.011875 0.0175 0.0175 0.0175 0.0175 0.0175 0.0175 0.011875 0.011875 0.011875 0.011875 0.011875 0.011875 0.0175 0.0175 0.0175 0.0175 0.0175 0.0175 0.011875 0.011875 0.011875 0.011875 0.011875 0.011875 0.0175 0.0175 0.0175 0.0175 0.0175 0.0175 0.011875 0.011875 0.011875 0.011875 0.011875 0.011875 0.0175 0.0175 0.0175 0.0175 0.0175 0.0175 0.011875 0.011875 0.011875 0.011875 0.011875 0.011875 0.0175 0.0175 0.0175 0.0175 0.0175 0.0175 0.011875 0.011875 0.011875 0.011875 0.011875 0.011875 0.0175 0.0175 0.0175 0.0175 0.0175 0.0175 0.011875 0.011875 0.011875 0.011875 0.011875 0.011875 0.0175 0.0175 0.0175 0.0175 0.0175 0.0175 0.011875 0.011875 0.011875 0.011875 0.011875 0.011875 0.0175 0.0175 0.0175 0.0175 0.0175 0.0175 0.011875 0.011875 0.011875 0.011875 0.011875 0.011875 0.0175 0.0175 0.0175 0.0175 0.0175 0.0175 0.011875 0.011875 0.011875 0.011875 0.011875 0.011875 0.0175 0.0175 0.0175 0.0175 0.0175 0.0175 0.011875 0.011875 0.011875 0.011875 0.011875 0.011875 0.0175 0.0175 0.0175 0.0175 0.0175 0.0175 0.011875 0.011875 0.011875 0.011875 0.011875 0.011875 0.0175 0.0175 0.0175 0.0175 0.0175 0.0175 0.011875 0.011875 0.011875 0.011875 0.011875 0.011875 0.0175 0.0175 0.0175 0.0175 0.0175 0.0175 0.011875 0.011875 0.011875 0.011875 0.011875 0.011875 0.0175 0.0175 0.0175 0.0175 0.0175 0.0175 0.011875 0.011875 0.011875 0.011875 0.011875 0.011875 0.0175 0.0175 0.0175 0.0175 0.0175 0.0175 0.011875 0.011875 0.011875 0.011875 0.011875 0.011875 0.0175 0.0175 0.0175 0.0175 0.0175 0.0175 0.011875 0.011875 0.011875 0.011875 0.011875 0.011875 0.0175 0.0175 0.0175 0.0175 0.0175 0.0175 0.011875 0.011875 0.011875 0.011875 0.011875 0.011875 0.0175 0.0175 0.0175 0.0175 0.0175 0.0175 0.011875 0.011875 0.011875 0.011875 0.011875 0.011875 0.0175 0.0175 0.0175 0.0175 0.0175 0.0175 0.011875 0.011875 0.011875 0.011875 0.011875 0.011875 0.0175 0.0175 0.0175 0.0175 0.0175 0.0175 0.011875 0.011875 0.011875 0.011875 0.011875 0.011875 0.0175 0.0175 0.0175 0.0175 0.0175 0.0175 0.011875 0.011875 0.011875 0.011875 0.011875 0.011875 0.0175 0.0175 0.0175 0.0175 0.0175 0.0175 0.011875 0.011875 0.011875 0.011875 0.011875 0.011875 0.0175 0.0175 0.0175 0.0175 0.0175 0.0175 0.011875 0.011875 0.011875 0.011875 0.011875 0.011875 0.0175 0.0175 0.0175 0.0175 0.0175 0.0175 0.011875 0.011875 0.011875 0.011875 0.011875 0.011875 0.0175 0.0175 0.0175 0.0175 0.0175 0.0175 0.011875 0.011875 0.011875 0.011875 0.011875 0.011875 0.0175 0.0175 0.0175 0.0175 0.0175 0.0175 0.011875 0.011875 0.011875 0.011875 0.011875 0.011875 0.0175 0.0175 0.0175 0.0175 0.0175 0.0175 0.011875 0.011875 0.011875 0.011875 0.011875 0.011875 0.0175 0.0175 0.0175 0.0175 0.0175 0.0175 0.011875 0.011875 0.011875 0.011875 0.011875 0.011875 0.0175 0.0175 0.0175 0.0175 0.0175 0.0175 0.011875 0.011875 0.011875 0.011875 0.011875 0.011875 0.0175 0.0175 0.0175 0.0175 0.0175 0.0175 0.011875 0.011875 0.011875 0.011875 0.011875 0.011875 0.0175 0.0175 0.0175 0.0175 0.0175 0.0175 0.011875 0.011875 0.011875 0.011875 0.011875 0.011875 0.0175 0.0175 0.0175 0.0175 0.0175 0.0175 0.011875 0.011875 0.011875 0.011875 0.011875 0.011875 0.0175 0.0175 0.0175 0.0175 0.0175 0.0175 0.011875 0.011875 0.011875 0.011875 0.011875 0.011875 0.0175 0.0175 0.0175 0.0175 0.0175 0.0175 0.011875 0.011875 0.011875 0.011875 0.011875 0.011875 0.0175 0.0175 0.0175 0.0175 0.0175 0.0175 0.011875 0.011875 0.011875 0.011875 0.011875 0.011875 0.0175 0.0175 0.0175 0.0175 0.0175 0.0175 0.011875 0.011875 0.011875 0.011875 0.011875 0.011875 0.0175 0.0175 0.0175 0.0175 0.0175 0.0175 0.011875 0.011875 0.011875 0.011875 0.011875 0.011875 0.0175 0.0175 0.0175 0.0175 0.0175 0.0175 0.011875 0.011875 0.011875 0.011875 0.011875 0.011875 0.0175 0.0175 0.0175 0.0175 0.0175 0.0175 0.011875 0.011875 0.011875 0.011875 0.011875 0.011875 0.0175 0.0175 0.0175 0.0175 0.0175 0.0175 0.011875 0.011875 0.011875 0.011875 0.011875 0.011875 0.0175 0.0175 0.0175 0.0175 0.0175 0.0175 0.011875 0.011875 0.011875 0.011875 0.011875 0.011875 0.0175 0.0175 0.0175 0.0175 0.0175 0.0175 0.011875 0.011875 0.011875 0.011875 0.011875 0.011875 0.0175 0.0175 0.0175 0.0175 0.0175 0.0175 0.011875 0.011875 0.011875 0.011875 0.011875 0.011875 0.0175 0.0175 0.0175 0.0175 0.0175 0.0175 0.011875 0.011875 0.011875 0.011875 0.011875 0.011875 0.0175 0.0175 0.0175 0.0175 0.0175 0.0175 0.011875 0.011875 0.011875 0.011875 0.011875 0.011875 0.0175 0.0175 0.0175 0.0175 0.0175 0.0175 0.011875 0.011875 0.011875 0.011875 0.011875 0.011875 0.0175 0.0175 0.0175 0.0175 0.0175 0.0175 0.011875 0.011875 0.011875 0.011875 0.011875 0.011875 0.0175 0.0175 0.0175 0.0175 0.0175 0.0175 0.011875 0.011875 0.011875 0.011875 0.011875 0.011875 0.0175 0.0175 0.0175 0.0175 0.0175 0.0175 0.011875 0.011875 0.011875 0.011875 0.011875 0.011875 0.0175 0.0175 0.0175 0.0175 0.0175 0.0175 0.011875 0.011875 0.011875 0.011875 0.011875 0.011875 0.0175 0.0175 0.0175 0.0175 0.0175 0.0175 0.011875 0.011875 0.011875 0.011875 0.011875 0.011875 0.0175 0.0175 0.0175 0.0175 0.0175 0.0175 0.011875 0.011875 0.011875 0.011875 0.011875 0.011875 0.0175 0.0175 0.0175 0.0175 0.0175 0.0175 0.011875 0.011875 0.011875 0.011875 0.011875 0.011875 0.0175 0.0175 0.0175 0.0175 0.0175 0.0175 0.011875 0.011875 0.011875 0.011875 0.011875 0.011875 0.0175 0.0175 0.0175 0.0175 0.0175 0.0175 0.011875 0.011875 0.011875 0.011875 0.011875 0.011875 0.0175 0.0175 0.0175 0.0175 0.0175 0.0175 0.011875 0.011875 0.011875 0.011875 0.011875 0.011875 0.0175 0.0175 0.0175 0.0175 0.0175 0.0175 0.011875 0.011875 0.011875 0.011875 0.011875 0.011875 0.0175 0.0175 0.0175 0.0175 0.0175 0.0175 0.011875 0.011875 0.011875 0.011875 0.011875 0.011875 0.0175 0.0175 0.0175 0.0175 0.0175 0.0175 0.011875 0.011875 0.011875 0.011875 0.011875 0.011875 0.0175 0.0175 0.0175 0.0175 0.0175 0.0175 0.011875 0.011875 0.011875 0.011875 0.011875 0.011875 0.0175 0.0175 0.0175 0.0175 0.0175 0.0175 0.011875 0.011875 0.011875 0.011875 0.011875 0.011875 0.0175 0.0175 0.0175 0.0175 0.0175 0.0175 0.011875 0.011875 0.011875 0.011875 0.011875 0.011875 0.0175 0.0175 0.0175 0.0175 0.0175 0.0175 0.011875 0.011875 0.011875 0.011875 0.011875 0.011875 0.0175 0.0175 0.0175 0.0175 0.0175 0.0175 0.011875 0.011875 0.011875 0.011875 0.011875 0.011875 0.0175 0.0175 0.0175 0.0175 0.0175 0.0175 0.011875 0.011875 0.011875 0.011875 0.011875 0.011875 0.0175 0.0175 0.0175 0.0175 0.0175 0.0175 0.011875 0.011875 0.011875 0.011875 0.011875 0.011875 0.0175 0.0175 0.0175 0.0175 0.0175 0.0175 0.011875 0.011875 0.011875 0.011875 0.011875 0.011875 0.0175 0.0175 0.0175 0.0175 0.0175 0.0175 0.011875 0.011875 0.011875 0.011875 0.011875 0.011875 0.0175 0.0175 0.0175 0.0175 0.0175 0.0175 0.011875 0.011875 0.011875 0.011875 0.011875 0.011875 0.0175 0.0175 0.0175 0.0175 0.0175 0.0175 0.011875 0.011875 0.011875 0.011875 0.011875 0.011875 0.0175 0.0175 0.0175 0.0175 0.0175 0.0175 0.011875 0.011875 0.011875 0.011875 0.011875 0.011875 0.0175 0.0175 0.0175 0.0175 0.0175 0.0175 0.011875 0.011875 0.011875 0.011875 0.011875 0.011875 0.0175 0.0175 0.0175 0.0175 0.0175 0.0175 0.011875 0.011875 0.011875 0.011875 0.011875 0.011875 0.0175 0.0175 0.0175 0.0175 0.0175 0.0175 0.011875 0.011875 0.011875 0.011875 0.011875 0.011875 0.0175 0.0175 0.0175 0.0175 0.0175 0.0175 0.011875 0.011875 0.011875 0.011875 0.011875 0.011875 0.0175 0.0175 0.0175 0.0175 0.0175 0.0175 0.011875 0.011875 0.011875 0.011875 0.011875 0.011875 0.0175 0.0175 0.0175 0.0175 0.0175 0.0175 0.011875 0.011875 0.011875 0.011875 0.011875 0.011875 0.0175 0.0175 0.0175 0.0175 0.0175 0.0175 0.011875 0.011875 0.011875 0.011875 0.011875 0.011875 0.0175 0.0175 0.0175 0.0175 0.0175 0.0175 0.011875 0.011875 0.011875 0.011875 0.011875 0.011875 0.0175 0.0175 0.0175 0.0175 0.0175 0.0175 0.011875 0.011875 0.011875 0.011875 0.011875 0.011875 0.0175 0.0175 0.0175 0.0175 0.0175 0.0175 0.011875 0.011875 0.011875 0.011875 0.011875 0.011875 0.0175 0.0175 0.0175 0.0175 0.0175 0.0175 0.011875 0.011875 0.011875 0.011875 0.011875 0.011875 0.0175 0.0175 0.0175 0.0175 0.0175 0.0175 0.011875 0.011875 0.011875 0.011875 0.011875 0.011875 0.0175 0.0175 0.0175 0.0175 0.0175 0.0175 0.011875 0.011875 0.011875 0.011875 0.011875 0.011875 0.0175 0.0175 0.0175 0.0175 0.0175 0.0175 0.011875 0.011875 0.011875 0.011875 0.011875 0.011875 0.0175 0.0175 0.0175 0.0175 0.0175 0.0175 0.011875 0.011875 0.011875 0.011875 0.011875 0.011875 0.0175 0.0175 0.0175 0.0175 0.0175 0.0175 0.011875 0.011875 0.011875 0.011875 0.011875 0.011875 0.0175 0.0175 0.0175 0.0175 0.0175 0.0175 0.011875 0.011875 0.011875 0.011875 0.011875 0.011875 0.0175 0.0175 0.0175 0.0175 0.0175 0.0175 0.011875 0.011875 0.011875 0.011875 0.011875 0.011875 0.0175 0.0175 0.0175 0.0175 0.0175 0.0175 0.011875 0.011875 0.011875 0.011875 0.011875 0.011875 0.0175 0.0175 0.0175 0.0175 0.0175 0.0175 0.011875 0.011875 0.011875 0.011875 0.011875 0.011875 0.0175 0.0175 0.0175 0.0175 0.0175 0.0175 0.011875 0.011875 0.011875 0.011875 0.011875 0.011875 0.0175 0.0175 0.0175 0.0175 0.0175 0.0175 0.011875 0.011875 0.011875 0.011875 0.011875 0.011875 0.0175 0.0175 0.0175 0.0175 0.0175 0.0175 0.011875 0.011875 0.011875 0.011875 0.011875 0.011875 0.0175 0.0175 0.0175 0.0175 0.0175 0.0175 0.011875 0.011875 0.011875 0.011875 0.011875 0.011875 0.0175 0.0175 0.0175 0.0175 0.0175 0.0175 0.011875 0.011875 0.011875 0.011875 0.011875 0.011875 0.0175 0.0175 0.0175 0.0175 0.0175 0.0175 0.011875 0.011875 0.011875 0.011875 0.011875 0.011875 0.0175 0.0175 0.0175 0.0175 0.0175 0.0175 0.011875 0.011875 0.011875 0.011875 0.011875 0.011875 0.0175 0.0175 0.0175 0.0175 0.0175 0.0175 0.011875 0.011875 0.011875 0.011875 0.011875 0.011875 0.0175 0.0175 0.0175 0.0175 0.0175 0.0175 0.011875 0.011875 0.011875 0.011875 0.011875 0.011875 0.0175 0.0175 0.0175 0.0175 0.0175 0.0175 0.011875 0.011875 0.011875 0.011875 0.011875 0.011875 0.0175 0.0175 0.0175 0.0175 0.0175 0.0175 0.011875 0.011875 0.011875 0.011875 0.011875 0.011875 0.0175 0.0175 0.0175 0.0175 0.0175 0.0175 0.011875 0.011875 0.011875 0.011875 0.011875 0.011875 0.0175 0.0175 0.0175 0.0175 0.0175 0.0175 0.011875 0.011875 0.011875 0.011875 0.011875 0.011875 0.0175 0.0175 0.0175 0.0175 0.0175 0.0175 0.011875 0.011875 0.011875 0.011875 0.011875 0.011875 0.0175 0.0175 0.0175 0.0175 0.0175 0.0175 0.011875 0.011875 0.011875 0.011875 0.011875 0.011875 0.0175 0.0175 0.0175 0.0175 0.0175 0.0175 0.011875 0.011875 0.011875 0.011875 0.011875 0.011875 0.0175 0.0175 0.0175 0.0175 0.0175 0.0175 0.011875 0.011875 0.011875 0.011875 0.011875 0.011875 0.0175 0.0175 0.0175 0.0175 0.0175 0.0175 0.011875 0.011875 0.011875 0.011875 0.011875 0.011875 0.0175 0.0175 0.0175 0.0175 0.0175 0.0175 0.011875 0.011875 0.011875 0.011875 0.011875 0.011875 0.0175 0.0175 0.0175 0.0175 0.0175 0.0175 0.011875 0.011875 0.011875 0.011875 0.011875 0.011875 0.0175 0.0175 0.0175 0.0175 0.0175 0.0175 0.011875 0.011875 0.011875 0.011875 0.011875 0.011875 0.0175 0.0175 0.0175 0.0175 0.0175 0.0175 0.011875 0.011875 0.011875 0.011875 0.011875 0.011875 0.0175 0.0175 0.0175 0.0175 0.0175 0.0175 0.011875 0.011875 0.011875 0.011875 0.011875 0.011875 0.0175 0.0175 0.0175 0.0175 0.0175 0.0175 0.011875 0.011875 0.011875 0.011875 0.011875 0.011875 0.0175 0.0175 0.0175 0.0175 0.0175 0.0175 0.011875 0.011875 0.011875 0.011875 0.011875 0.011875 0.0175 0.0175 0.0175 0.0175 0.0175 0.0175 0.011875 0.011875 0.011875 0.011875 0.011875 0.011875 0.0175 0.0175 0.0175 0.0175 0.0175 0.0175 0.011875 0.011875 0.011875 0.011875 0.011875 0.011875 0.0175 0.0175 0.0175 0.0175 0.0175 0.0175 0.011875 0.011875 0.011875 0.011875 0.011875 0.011875 0.0175 0.0175 0.0175 0.0175 0.0175 0.0175 0.011875 0.011875 0.011875 0.011875 0.011875 0.011875 0.0175 0.0175 0.0175 0.0175 0.0175 0.0175 0.011875 0.011875 0.011875 0.011875 0.011875 0.011875 0.0175 0.0175 0.0175 0.0175 0.0175 0.0175 0.011875 0.011875 0.011875 0.011875 0.011875 0.011875 0.0175 0.0175 0.0175 0.0175 0.0175 0.0175 0.011875 0.011875 0.011875 0.011875 0.011875 0.011875 0.0175 0.0175 0.0175 0.0175 0.0175 0.0175 0.011875 0.011875 0.011875 0.011875 0.011875 0.011875 0.0175 0.0175 0.0175 0.0175 0.0175 0.0175 0.011875 0.011875 0.011875 0.011875 0.011875 0.011875 0.0175 0.0175 0.0175 0.0175 0.0175 0.0175 0.011875 0.011875 0.011875 0.011875 0.011875 0.011875 0.0175 0.0175 0.0175 0.0175 0.0175 0.0175 0.011875 0.011875 0.011875 0.011875 0.011875 0.011875 0.0175 0.0175 0.0175 0.0175 0.0175 0.0175 0.011875 0.011875 0.011875 0.011875 0.011875 0.011875 0.0175 0.0175 0.0175 0.0175 0.0175 0.0175 0.011875 0.011875 0.011875 0.011875 0.011875 0.011875 0.0175 0.0175 0.0175 0.0175 0.0175 0.0175 0.011875 0.011875 0.011875 0.011875 0.011875 0.011875 0.0175 0.0175 0.0175 0.0175 0.0175 0.0175 0.011875 0.011875 0.011875 0.011875 0.011875 0.011875 0.0175 0.0175 0.0175 0.0175 0.0175 0.0175 0.011875 0.011875 0.011875 0.011875 0.011875 0.011875 0.0175 0.0175 0.0175 0.0175 0.0175 0.0175 0.011875 0.011875 0.011875 0.011875 0.011875 0.011875 0.0175 0.0175 0.0175 0.0175 0.0175 0.0175 0.011875 0.011875 0.011875 0.011875 0.011875 0.011875 0.0175 0.0175 0.0175 0.0175 0.0175 0.0175 0.011875 0.011875 0.011875 0.011875 0.011875 0.011875 0.0175 0.0175 0.0175 0.0175 0.0175 0.0175 0.011875 0.011875 0.011875 0.011875 0.011875 0.011875 0.0175 0.0175 0.0175 0.0175 0.0175 0.0175 0.011875 0.011875 0.011875 0.011875 0.011875 0.011875 0.0175 0.0175 0.0175 0.0175 0.0175 0.0175 0.011875 0.011875 0.011875 0.011875 0.011875 0.011875 0.0175 0.0175 0.0175 0.0175 0.0175 0.0175 0.011875 0.011875 0.011875 0.011875 0.011875 0.011875 0.0175 0.0175 0.0175 0.0175 0.0175 0.0175 0.011875 0.011875 0.011875 0.011875 0.011875 0.011875 0.0175 0.0175 0.0175 0.0175 0.0175 0.0175 0.011875 0.011875 0.011875 0.011875 0.011875 0.011875 0.0175 0.0175 0.0175 0.0175 0.0175 0.0175 0.011875 0.011875 0.011875 0.011875 0.011875 0.011875 0.0175 0.0175 0.0175 0.0175 0.0175 0.0175 0.011875 0.011875 0.011875 0.011875 0.011875 0.05375 0.05375 0.05375 0.05375 0.05375 0.05375 0.05375 0.05375 0.05375 0.05375 0.05375 0.05375 0.05375 0.05375 0.05375 0.05375 0.05375 0.05375 0.05375 0.05375 0.05375 0.05375 0.05375 0.05375 0.05375 0.05375 0.05375 0.05375 0.05375 0.05375 0.05375 0.05375 0.05375 0.05375 0.05375 0.05375 0.05375 0.05375 0.05375 0.05375 0.05375 0.05375 0.05375 0.05375 0.05375 0.05375 0.05375 0.05375 0.05375 0.05375 0.05375 0.05375 0.05375 0.05375 0.05375 0.05375 0.05375 0.05375 0.05375 0.05375 0.05375 0.05375 0.05375 0.05375 0.05375 0.05375 0.05375 0.05375 0.05375 0.05375 0.05375 0.05375 0.05375 0.05375 0.05375 0.05375 0.05375 0.05375 0.05375 0.05375 0.05375 0.05375 0.05375 0.05375 0.05375 0.05375 0.05375 0.05375 0.05375 0.05375 0.05375 0.05375 0.05375 0.05375 0.05375 0.05375 0.05375 0.05375 0.05375 0.05375 0.05375 0.05375 0.05375 0.05375 0.05375 0.05375 0.05375 0.05375 0.05375 0.05375 0.05375 0.05375 0.05375 0.05375 0.05375 0.05375 0.05375 0.05375 0.05375 0.05375 0.05375 0.05375 0.05375 0.05375 0.05375 0.05375 0.05375 0.05375 0.05375 0.05375 0.05375 0.05375 0.05375 0.05375 0.05375 0.05375 0.05375 0.05375 0.05375 0.05375 0.05375 0.05375 0.05375 0.05375 0.05375 0.05375 0.05375 0.05375 0.05375 0.05375 0.05375 0.05375 0.05375 0.05375 0.05375 0.05375 0.05375 0.05375 0.05375 0.05375 0.05375 0.05375 0.05375 0.05375 0.05375 0.05375 0.05375 0.05375 0.05375 0.05375 0.05375 0.05375 0.05375 0.05375 0.05375 0.05375 0.05375 0.05375 0.05375 0.05375 0.05375 0.05375 0.05375 0.05375 0.05375 0.05375 0.05375 0.05375 0.05375 0.05375 0.05375 0.05375 0.05375 0.05375 0.05375 0.05375 0.05375 0.05375 0.05375 0.05375 0.05375 0.05375 0.05375 0.05375 0.05375 0.05375 0.05375 0.05375 0.05375 0.05375 0.05375 0.05375 0.05375 0.05375 0.05375 0.05375 0.05375 0.05375 0.05375 0.05375 0.05375 0.05375 0.05375 0.05375 0.05375 0.05375 0.05375 0.05375 0.05375 0.05375 0.05375 0.05375 0.05375 0.05375 0.05375 0.05375 0.05375 0.05375 0.05375 0.05375 0.05375 0.05375 0.05375 0.05375 0.05375 0.05375 0.05375 0.05375 0.05375 0.05375 0.05375 0.05375 0.05375 0.05375 0.05375 0.05375 0.05375 0.05375 0.05375 0.05375 0.05375 0.05375 0.05375 0.05375 0.05375 0.05375 0.05375 0.05375 0.05375 0.05375 0.05375 0.05375 0.05375 0.05375 0.05375 0.05375 0.05375 0.05375 0.05375 0.05375 0.05375 0.05375 0.05375 0.05375 0.05375 0.05375 0.05375 0.05375 0.05375 0.05375 0.05375 0.05375 0.05375 0.05375 0.05375 0.05375 0.05375 0.05375 0.05375 0.05375 0.05375 0.05375 0.05375 0.05375 0.05375 0.05375 0.05375 0.05375 0.05375 0.011875 0.011875 0.011875 0.011875 0.011875 0.011875 0.011875 0.011875 0.011875 0.011875 0.011875 0.011875 0.011875 0.011875 0.011875 0.011875 0.011875 0.011875 0.011875 0.011875 0.011875 0.011875 0.011875 0.011875 0.011875 0.011875 0.011875 0.011875 0.011875 0.011875 0.011875 0.011875 0.011875 0.011875 0.011875 0.011875 0.011875 0.011875 0.011875 0.011875 0.011875 0.011875 0.011875 0.011875 0.011875 0.011875 0.011875 0.011875 0.011875 0.011875 0.011875 0.011875 0.011875 0.011875 0.011875 0.011875 0.011875 0.011875 0.011875 0.011875 0.011875 0.011875 0.011875 0.011875 0.011875 0.011875 0.011875 0.011875 0.011875 0.011875 0.011875 0.011875 0.011875 0.011875 0.011875 0.011875 0.011875 0.011875 0.011875 0.011875 0.011875 0.011875 0.011875 0.011875 0.011875 0.011875 0.011875 0.011875 0.011875 0.011875 0.011875 0.011875 0.011875 0.011875 0.011875 0.011875 0.011875 0.011875 0.011875 0.011875 0.011875 0.011875 0.011875 0.011875 0.011875 0.011875 0.011875 0.011875 0.011875 0.011875 0.011875 0.011875 0.011875 0.011875 0.011875 0.011875 0.011875 0.011875 0.011875 0.011875 0.011875 0.011875 0.011875 0.011875 0.011875 0.011875 0.011875 0.011875 0.011875 0.011875 0.011875 0.011875 0.011875 0.011875 0.011875 0.011875 0.011875 0.011875 0.011875 0.011875 0.011875 0.011875 0.011875 0.011875 0.011875 0.011875 0.011875 0.011875 0.011875 0.011875 0.011875 0.011875 0.011875 0.011875 0.011875 0.011875 0.011875 0.011875 0.011875 0.011875 0.011875 0.011875 0.011875 0.011875 0.011875 0.011875 0.011875 0.011875 0.011875 0.011875 0.011875 0.011875 0.011875 0.011875 0.011875 0.011875 0.011875 0.011875 0.011875 0.011875 0.011875 0.011875 0.011875 0.011875 0.011875 0.011875 0.011875 0.011875 0.011875 0.011875 0.011875 0.011875 0.011875 0.011875 0.011875 0.011875 0.011875 0.011875 0.011875 0.011875 0.011875 0.011875 0.011875 0.011875 0.011875 0.011875 0.011875 0.011875 0.011875 0.011875 0.011875 0.011875 0.011875 0.011875 0.011875 0.011875 0.011875 0.011875 0.011875 0.011875 0.011875 0.011875 0.011875 0.011875 0.011875 0.011875 0.011875 0.011875 0.011875 0.011875 0.011875 0.011875 0.011875 0.011875 0.011875 0.011875 0.011875 0.011875 0.011875 0.011875 0.011875 0.011875 0.011875 0.011875 0.011875 0.011875 0.011875 0.