<?xml version="1.0"?><VTKFile type="PolyData" version="0.1" byte_order="LittleEndian">
<PolyData>
<Piece NumberOfLines="14193" NumberOfPoints="14194">
<CellData doubles=" CellData">
<DataArray type="Float32" Name="radius" NumberOfComponents="1" format="ascii" >
0.05225 0.05225 0.05225 0.05225 0.05225 0.05225 0.05225 0.05225 0.05225 0.05225 0.05225 0.05225 0.05225 0.05225 0.05225 0.05225 0.05225 0.05225 0.05225 0.05225 0.05225 0.05225 0.05225 0.05225 0.05225 0.05225 0.05225 0.05225 0.05225 0.05225 0.05225 0.05225 0.05225 0.05225 0.05225 0.05225 0.05225 0.05225 0.05225 0.05225 0.05225 0.05225 0.05225 0.05225 0.05225 0.05225 0.05225 0.05225 0.05225 0.05225 0.05225 0.05225 0.05225 0.05225 0.05225 0.05225 0.05225 0.05225 0.05225 0.05225 0.05225 0.05225 0.05225 0.05225 0.05225 0.05225 0.05225 0.05225 0.05225 0.05225 0.05225 0.05225 0.05225 0.05225 0.05225 0.05225 0.05225 0.05225 0.05225 0.05225 0.05225 0.05225 0.05225 0.05225 0.05225 0.05225 0.05225 0.05225 0.05225 0.05225 0.05225 0.05225 0.05225 0.05225 0.05225 0.05225 0.05225 0.05225 0.05225 0.05225 0.05225 0.05225 0.05225 0.05225 0.05225 0.05225 0.05225 0.05225 0.05225 0.05225 0.05225 0.05225 0.05225 0.05225 0.05225 0.05225 0.05225 0.05225 0.05225 0.05225 0.05225 0.05225 0.05225 0.05225 0.05225 0.05225 0.05225 0.05225 0.05225 0.05225 0.05225 0.05225 0.05225 0.05225 0.05225 0.05225 0.05225 0.05225 0.05225 0.05225 0.05225 0.05225 0.05225 0.05225 0.05225 0.05225 0.05225 0.05225 0.05225 0.05225 0.05225 0.05225 0.05225 0.05225 0.05225 0.05225 0.05225 0.05225 0.05225 0.05225 0.05225 0.05225 0.05225 0.05225 0.05225 0.05225 0.05225 0.05225 0.05225 0.05225 0.05225 0.05225 0.05225 0.011875 0.011875 0.011875 0.011875 0.011875 0.011875 0.011875 0.011875 0.011875 0.011875 0.011875 0.011875 0.020625 0.020625 0.020625 0.020625 0.020625 0.020625 0.020625 0.020625 0.020625 0.020625 0.020625 0.020625 0.020625 0.011875 0.011875 0.011875 0.011875 0.011875 0.011875 0.011875 0.011875 0.011875 0.011875 0.011875 0.011875 0.011875 0.011875 0.011875 0.011875 0.011875 0.011875 0.011875 0.011875 0.011875 0.011875 0.011875 0.011875 0.011875 0.011875 0.011875 0.011875 0.011875 0.011875 0.011875 0.011875 0.011875 0.011875 0.011875 0.011875 0.011875 0.011875 0.011875 0.011875 0.011875 0.011875 0.020625 0.020625 0.020625 0.020625 0.020625 0.020625 0.020625 0.020625 0.020625 0.020625 0.020625 0.020625 0.020625 0.011875 0.011875 0.011875 0.011875 0.011875 0.011875 0.011875 0.011875 0.011875 0.011875 0.011875 0.011875 0.011875 0.011875 0.011875 0.011875 0.011875 0.011875 0.011875 0.011875 0.011875 0.011875 0.011875 0.011875 0.011875 0.011875 0.011875 0.011875 0.011875 0.011875 0.011875 0.011875 0.011875 0.011875 0.011875 0.011875 0.011875 0.011875 0.011875 0.011875 0.011875 0.011875 0.011875 0.011875 0.011875 0.011875 0.011875 0.011875 0.011875 0.011875 0.011875 0.011875 0.011875 0.011875 0.020625 0.020625 0.020625 0.020625 0.020625 0.020625 0.020625 0.020625 0.020625 0.020625 0.020625 0.020625 0.020625 0.011875 0.011875 0.011875 0.011875 0.011875 0.011875 0.011875 0.011875 0.011875 0.011875 0.011875 0.011875 0.011875 0.011875 0.011875 0.011875 0.011875 0.011875 0.011875 0.011875 0.011875 0.011875 0.011875 0.011875 0.011875 0.011875 0.011875 0.011875 0.011875 0.011875 0.011875 0.011875 0.011875 0.020625 0.020625 0.020625 0.020625 0.020625 0.020625 0.020625 0.020625 0.020625 0.020625 0.020625 0.020625 0.020625 0.011875 0.011875 0.011875 0.011875 0.011875 0.011875 0.011875 0.011875 0.011875 0.011875 0.011875 0.011875 0.011875 0.011875 0.011875 0.011875 0.011875 0.011875 0.011875 0.011875 0.011875 0.011875 0.011875 0.011875 0.011875 0.011875 0.011875 0.011875 0.011875 0.011875 0.011875 0.011875 0.011875 0.020625 0.020625 0.020625 0.020625 0.020625 0.020625 0.020625 0.020625 0.020625 0.020625 0.020625 0.020625 0.020625 0.011875 0.011875 0.011875 0.011875 0.011875 0.011875 0.011875 0.011875 0.011875 0.011875 0.011875 0.011875 0.011875 0.011875 0.011875 0.011875 0.011875 0.011875 0.011875 0.011875 0.011875 0.011875 0.011875 0.011875 0.011875 0.011875 0.011875 0.020625 0.020625 0.020625 0.020625 0.020625 0.020625 0.020625 0.020625 0.020625 0.020625 0.020625 0.020625 0.020625 0.011875 0.011875 0.011875 0.011875 0.011875 0.011875 0.011875 0.011875 0.011875 0.011875 0.011875 0.011875 0.011875 0.011875 0.011875 0.011875 0.011875 0.011875 0.011875 0.011875 0.011875 0.011875 0.011875 0.011875 0.020625 0.020625 0.020625 0.020625 0.020625 0.020625 0.020625 0.020625 0.020625 0.020625 0.020625 0.020625 0.020625 0.011875 0.011875 0.011875 0.011875 0.011875 0.011875 0.011875 0.011875 0.011875 0.011875 0.011875 0.011875 0.011875 0.011875 0.011875 0.011875 0.011875 0.011875 0.011875 0.011875 0.011875 0.011875 0.011875 0.011875 0.011875 0.011875 0.011875 0.020625 0.020625 0.020625 0.020625 0.020625 0.020625 0.020625 0.020625 0.020625 0.020625 0.020625 0.020625 0.020625 0.011875 0.011875 0.011875 0.011875 0.011875 0.011875 0.011875 0.011875 0.011875 0.011875 0.011875 0.011875 0.011875 0.011875 0.011875 0.011875 0.011875 0.011875 0.011875 0.011875 0.011875 0.011875 0.011875 0.011875 0.020625 0.020625 0.020625 0.020625 0.020625 0.020625 0.020625 0.020625 0.020625 0.020625 0.020625 0.020625 0.020625 0.011875 0.011875 0.011875 0.011875 0.011875 0.011875 0.011875 0.011875 0.011875 0.011875 0.011875 0.011875 0.011875 0.011875 0.011875 0.011875 0.011875 0.011875 0.011875 0.011875 0.011875 0.011875 0.011875 0.011875 0.020625 0.020625 0.020625 0.020625 0.020625 0.020625 0.020625 0.020625 0.020625 0.020625 0.020625 0.020625 0.020625 0.011875 0.011875 0.011875 0.011875 0.011875 0.011875 0.011875 0.011875 0.011875 0.011875 0.011875 0.011875 0.011875 0.011875 0.011875 0.011875 0.011875 0.011875 0.011875 0.011875 0.011875 0.011875 0.011875 0.011875 0.020625 0.020625 0.020625 0.020625 0.020625 0.020625 0.020625 0.020625 0.020625 0.020625 0.020625 0.020625 0.020625 0.011875 0.011875 0.011875 0.011875 0.011875 0.011875 0.011875 0.011875 0.011875 0.011875 0.011875 0.011875 0.011875 0.011875 0.011875 0.011875 0.011875 0.011875 0.011875 0.011875 0.011875 0.011875 0.011875 0.011875 0.011875 0.011875 0.011875 0.020625 0.020625 0.020625 0.020625 0.020625 0.020625 0.020625 0.020625 0.020625 0.020625 0.020625 0.020625 0.020625 0.011875 0.011875 0.011875 0.011875 0.011875 0.011875 0.011875 0.011875 0.011875 0.011875 0.011875 0.011875 0.011875 0.011875 0.011875 0.011875 0.011875 0.011875 0.011875 0.011875 0.011875 0.011875 0.011875 0.011875 0.020625 0.020625 0.020625 0.020625 0.020625 0.020625 0.020625 0.020625 0.020625 0.020625 0.020625 0.020625 0.020625 0.011875 0.011875 0.011875 0.011875 0.011875 0.011875 0.011875 0.011875 0.011875 0.011875 0.011875 0.011875 0.011875 0.011875 0.011875 0.011875 0.011875 0.011875 0.011875 0.011875 0.011875 0.011875 0.011875 0.011875 0.011875 0.011875 0.011875 0.011875 0.011875 0.011875 0.020625 0.020625 0.020625 0.020625 0.020625 0.020625 0.020625 0.020625 0.020625 0.020625 0.020625 0.020625 0.020625 0.011875 0.011875 0.011875 0.011875 0.011875 0.011875 0.011875 0.011875 0.011875 0.011875 0.011875 0.011875 0.011875 0.011875 0.011875 0.011875 0.011875 0.011875 0.011875 0.011875 0.011875 0.011875 0.011875 0.011875 0.011875 0.011875 0.011875 0.020625 0.020625 0.020625 0.020625 0.020625 0.020625 0.020625 0.020625 0.020625 0.020625 0.020625 0.020625 0.020625 0.011875 0.011875 0.011875 0.011875 0.011875 0.011875 0.011875 0.011875 0.011875 0.011875 0.011875 0.011875 0.011875 0.011875 0.011875 0.011875 0.011875 0.011875 0.011875 0.011875 0.011875 0.011875 0.011875 0.011875 0.020625 0.020625 0.020625 0.020625 0.020625 0.020625 0.020625 0.020625 0.020625 0.020625 0.020625 0.020625 0.020625 0.011875 0.011875 0.011875 0.011875 0.011875 0.011875 0.011875 0.011875 0.011875 0.011875 0.011875 0.011875 0.011875 0.011875 0.011875 0.011875 0.011875 0.011875 0.011875 0.011875 0.011875 0.011875 0.011875 0.011875 0.020625 0.020625 0.020625 0.020625 0.020625 0.020625 0.020625 0.020625 0.020625 0.020625 0.020625 0.020625 0.020625 0.011875 0.011875 0.011875 0.011875 0.011875 0.011875 0.011875 0.011875 0.011875 0.011875 0.011875 0.011875 0.011875 0.011875 0.011875 0.011875 0.011875 0.011875 0.011875 0.011875 0.011875 0.011875 0.011875 0.011875 0.020625 0.020625 0.020625 0.020625 0.020625 0.020625 0.020625 0.020625 0.020625 0.020625 0.020625 0.020625 0.020625 0.011875 0.011875 0.011875 0.011875 0.011875 0.011875 0.011875 0.011875 0.011875 0.011875 0.011875 0.011875 0.011875 0.011875 0.011875 0.011875 0.011875 0.011875 0.011875 0.011875 0.011875 0.011875 0.011875 0.011875 0.020625 0.020625 0.020625 0.020625 0.020625 0.020625 0.020625 0.020625 0.020625 0.020625 0.020625 0.020625 0.020625 0.011875 0.011875 0.011875 0.011875 0.011875 0.011875 0.011875 0.011875 0.011875 0.011875 0.011875 0.011875 0.011875 0.011875 0.011875 0.011875 0.011875 0.011875 0.011875 0.011875 0.011875 0.011875 0.011875 0.011875 0.020625 0.020625 0.020625 0.020625 0.020625 0.020625 0.020625 0.020625 0.020625 0.020625 0.020625 0.020625 0.020625 0.011875 0.011875 0.011875 0.011875 0.011875 0.011875 0.011875 0.011875 0.011875 0.011875 0.011875 0.011875 0.011875 0.011875 0.011875 0.011875 0.011875 0.011875 0.011875 0.011875 0.011875 0.011875 0.011875 0.011875 0.020625 0.020625 0.020625 0.020625 0.020625 0.020625 0.020625 0.020625 0.020625 0.020625 0.020625 0.020625 0.020625 0.011875 0.011875 0.011875 0.011875 0.011875 0.011875 0.011875 0.011875 0.011875 0.011875 0.011875 0.011875 0.011875 0.011875 0.011875 0.011875 0.011875 0.011875 0.011875 0.011875 0.011875 0.011875 0.011875 0.011875 0.020625 0.020625 0.020625 0.020625 0.020625 0.020625 0.020625 0.020625 0.020625 0.020625 0.020625 0.020625 0.020625 0.011875 0.011875 0.011875 0.011875 0.011875 0.011875 0.011875 0.011875 0.011875 0.011875 0.011875 0.011875 0.011875 0.011875 0.011875 0.011875 0.011875 0.011875 0.011875 0.011875 0.011875 0.011875 0.011875 0.011875 0.020625 0.020625 0.020625 0.020625 0.020625 0.020625 0.020625 0.020625 0.020625 0.020625 0.020625 0.020625 0.020625 0.011875 0.011875 0.011875 0.011875 0.011875 0.011875 0.011875 0.011875 0.011875 0.011875 0.011875 0.011875 0.011875 0.011875 0.011875 0.011875 0.011875 0.011875 0.011875 0.011875 0.011875 0.011875 0.011875 0.011875 0.020625 0.020625 0.020625 0.020625 0.020625 0.020625 0.020625 0.020625 0.020625 0.020625 0.020625 0.020625 0.020625 0.011875 0.011875 0.011875 0.011875 0.011875 0.011875 0.011875 0.011875 0.011875 0.011875 0.011875 0.011875 0.011875 0.011875 0.011875 0.011875 0.011875 0.011875 0.011875 0.011875 0.011875 0.011875 0.011875 0.011875 0.020625 0.020625 0.020625 0.020625 0.020625 0.020625 0.020625 0.020625 0.020625 0.020625 0.020625 0.020625 0.020625 0.011875 0.011875 0.011875 0.011875 0.011875 0.011875 0.011875 0.011875 0.011875 0.011875 0.011875 0.011875 0.011875 0.011875 0.011875 0.011875 0.011875 0.011875 0.011875 0.011875 0.011875 0.011875 0.011875 0.011875 0.020625 0.020625 0.020625 0.020625 0.020625 0.020625 0.020625 0.020625 0.020625 0.020625 0.020625 0.020625 0.011875 0.011875 0.011875 0.011875 0.011875 0.011875 0.011875 0.011875 0.011875 0.011875 0.011875 0.011875 0.011875 0.011875 0.011875 0.011875 0.011875 0.011875 0.011875 0.011875 0.011875 0.011875 0.020625 0.020625 0.020625 0.020625 0.020625 0.020625 0.020625 0.020625 0.020625 0.020625 0.020625 0.020625 0.020625 0.011875 0.011875 0.011875 0.011875 0.011875 0.011875 0.011875 0.011875 0.011875 0.011875 0.011875 0.011875 0.011875 0.011875 0.011875 0.011875 0.011875 0.011875 0.011875 0.011875 0.011875 0.011875 0.011875 0.011875 0.011875 0.011875 0.011875 0.020625 0.020625 0.020625 0.020625 0.020625 0.020625 0.020625 0.020625 0.020625 0.020625 0.020625 0.011875 0.011875 0.011875 0.011875 0.011875 0.011875 0.011875 0.011875 0.011875 0.011875 0.011875 0.011875 0.011875 0.011875 0.011875 0.011875 0.011875 0.011875 0.011875 0.011875 0.020625 0.020625 0.020625 0.020625 0.020625 0.020625 0.020625 0.020625 0.020625 0.020625 0.020625 0.020625 0.011875 0.011875 0.011875 0.011875 0.011875 0.011875 0.011875 0.011875 0.011875 0.011875 0.011875 0.011875 0.011875 0.011875 0.011875 0.011875 0.011875 0.011875 0.011875 0.011875 0.011875 0.011875 0.020625 0.020625 0.020625 0.020625 0.020625 0.020625 0.020625 0.020625 0.020625 0.020625 0.020625 0.020625 0.011875 0.011875 0.011875 0.011875 0.011875 0.011875 0.011875 0.011875 0.011875 0.011875 0.011875 0.011875 0.011875 0.011875 0.011875 0.011875 0.011875 0.011875 0.011875 0.011875 0.011875 0.011875 0.020625 0.020625 0.020625 0.020625 0.020625 0.020625 0.020625 0.020625 0.020625 0.020625 0.011875 0.011875 0.011875 0.011875 0.011875 0.011875 0.011875 0.011875 0.011875 0.011875 0.011875 0.011875 0.011875 0.011875 0.011875 0.011875 0.011875 0.011875 0.020625 0.020625 0.020625 0.020625 0.020625 0.020625 0.020625 0.020625 0.020625 0.020625 0.020625 0.020625 0.011875 0.011875 0.011875 0.011875 0.011875 0.011875 0.011875 0.011875 0.011875 0.011875 0.011875 0.011875 0.011875 0.011875 0.011875 0.011875 0.011875 0.011875 0.011875 0.011875 0.011875 0.011875 0.011875 0.011875 0.011875 0.020625 0.020625 0.020625 0.020625 0.020625 0.020625 0.020625 0.020625 0.020625 0.020625 0.011875 0.011875 0.011875 0.011875 0.011875 0.011875 0.011875 0.011875 0.011875 0.011875 0.011875 0.011875 0.011875 0.011875 0.011875 0.011875 0.011875 0.011875 0.020625 0.020625 0.020625 0.020625 0.020625 0.020625 0.020625 0.020625 0.020625 0.020625 0.011875 0.011875 0.011875 0.011875 0.011875 0.011875 0.011875 0.011875 0.011875 0.011875 0.011875 0.011875 0.011875 0.011875 0.011875 0.011875 0.011875 0.011875 0.020625 0.020625 0.020625 0.020625 0.020625 0.020625 0.020625 0.020625 0.020625 0.011875 0.011875 0.011875 0.011875 0.011875 0.011875 0.011875 0.011875 0.011875 0.011875 0.011875 0.011875 0.011875 0.011875 0.011875 0.011875 0.020625 0.020625 0.020625 0.020625 0.020625 0.020625 0.020625 0.020625 0.020625 0.011875 0.011875 0.011875 0.011875 0.011875 0.011875 0.011875 0.011875 0.011875 0.011875 0.011875 0.011875 0.011875 0.011875 0.011875 0.011875 0.020625 0.020625 0.020625 0.020625 0.020625 0.020625 0.020625 0.020625 0.020625 0.011875 0.011875 0.011875 0.011875 0.011875 0.011875 0.011875 0.011875 0.011875 0.011875 0.011875 0.011875 0.011875 0.011875 0.011875 0.011875 0.020625 0.020625 0.020625 0.020625 0.020625 0.020625 0.020625 0.020625 0.011875 0.011875 0.011875 0.011875 0.011875 0.011875 0.011875 0.011875 0.011875 0.011875 0.011875 0.011875 0.011875 0.011875 0.020625 0.020625 0.020625 0.020625 0.020625 0.020625 0.020625 0.020625 0.011875 0.011875 0.011875 0.011875 0.011875 0.011875 0.011875 0.011875 0.011875 0.011875 0.011875 0.011875 0.011875 0.011875 0.020625 0.020625 0.020625 0.020625 0.020625 0.020625 0.020625 0.020625 0.011875 0.011875 0.011875 0.011875 0.011875 0.011875 0.011875 0.011875 0.011875 0.011875 0.011875 0.011875 0.011875 0.011875 0.020625 0.020625 0.020625 0.020625 0.020625 0.020625 0.020625 0.020625 0.011875 0.011875 0.011875 0.011875 0.011875 0.011875 0.011875 0.011875 0.011875 0.011875 0.011875 0.011875 0.011875 0.011875 0.020625 0.020625 0.020625 0.020625 0.020625 0.020625 0.020625 0.020625 0.011875 0.011875 0.011875 0.011875 0.011875 0.011875 0.011875 0.011875 0.011875 0.011875 0.011875 0.011875 0.011875 0.011875 0.020625 0.020625 0.020625 0.020625 0.020625 0.020625 0.020625 0.020625 0.011875 0.011875 0.011875 0.011875 0.011875 0.011875 0.011875 0.011875 0.011875 0.011875 0.011875 0.011875 0.011875 0.011875 0.020625 0.020625 0.020625 0.020625 0.020625 0.020625 0.020625 0.020625 0.011875 0.011875 0.011875 0.011875 0.011875 0.011875 0.011875 0.011875 0.011875 0.011875 0.011875 0.011875 0.011875 0.011875 0.020625 0.020625 0.020625 0.020625 0.020625 0.020625 0.020625 0.020625 0.011875 0.011875 0.011875 0.011875 0.011875 0.011875 0.011875 0.011875 0.011875 0.011875 0.011875 0.011875 0.011875 0.011875 0.020625 0.020625 0.020625 0.020625 0.020625 0.020625 0.020625 0.020625 0.011875 0.011875 0.011875 0.011875 0.011875 0.011875 0.011875 0.011875 0.011875 0.011875 0.011875 0.011875 0.011875 0.011875 0.020625 0.020625 0.020625 0.020625 0.020625 0.020625 0.020625 0.020625 0.011875 0.011875 0.011875 0.011875 0.011875 0.011875 0.011875 0.011875 0.011875 0.011875 0.011875 0.011875 0.011875 0.011875 0.020625 0.020625 0.020625 0.020625 0.020625 0.020625 0.020625 0.020625 0.011875 0.011875 0.011875 0.011875 0.011875 0.011875 0.011875 0.011875 0.011875 0.011875 0.011875 0.011875 0.011875 0.011875 0.020625 0.020625 0.020625 0.020625 0.020625 0.020625 0.020625 0.020625 0.011875 0.011875 0.011875 0.011875 0.011875 0.011875 0.011875 0.011875 0.011875 0.011875 0.011875 0.011875 0.011875 0.011875 0.020625 0.020625 0.020625 0.020625 0.020625 0.020625 0.020625 0.020625 0.011875 0.011875 0.011875 0.011875 0.011875 0.011875 0.011875 0.011875 0.011875 0.011875 0.011875 0.011875 0.011875 0.011875 0.020625 0.020625 0.020625 0.020625 0.020625 0.020625 0.020625 0.020625 0.011875 0.011875 0.011875 0.011875 0.011875 0.011875 0.011875 0.011875 0.011875 0.011875 0.011875 0.011875 0.011875 0.011875 0.020625 0.020625 0.020625 0.020625 0.020625 0.020625 0.020625 0.020625 0.011875 0.011875 0.011875 0.011875 0.011875 0.011875 0.011875 0.011875 0.011875 0.011875 0.011875 0.011875 0.011875 0.011875 0.020625 0.020625 0.020625 0.020625 0.020625 0.020625 0.020625 0.020625 0.011875 0.011875 0.011875 0.011875 0.011875 0.011875 0.011875 0.011875 0.011875 0.011875 0.011875 0.011875 0.011875 0.011875 0.020625 0.020625 0.020625 0.020625 0.020625 0.020625 0.020625 0.020625 0.011875 0.011875 0.011875 0.011875 0.011875 0.011875 0.011875 0.011875 0.011875 0.011875 0.011875 0.011875 0.011875 0.011875 0.020625 0.020625 0.020625 0.020625 0.020625 0.020625 0.020625 0.020625 0.011875 0.011875 0.011875 0.011875 0.011875 0.011875 0.011875 0.011875 0.011875 0.011875 0.011875 0.011875 0.011875 0.011875 0.020625 0.020625 0.020625 0.020625 0.020625 0.020625 0.020625 0.020625 0.011875 0.011875 0.011875 0.011875 0.011875 0.011875 0.011875 0.011875 0.011875 0.011875 0.011875 0.011875 0.011875 0.011875 0.020625 0.020625 0.020625 0.020625 0.020625 0.020625 0.020625 0.020625 0.011875 0.011875 0.011875 0.011875 0.011875 0.011875 0.011875 0.011875 0.011875 0.011875 0.011875 0.011875 0.011875 0.011875 0.020625 0.020625 0.020625 0.020625 0.020625 0.020625 0.020625 0.020625 0.011875 0.011875 0.011875 0.011875 0.011875 0.011875 0.011875 0.011875 0.011875 0.011875 0.011875 0.011875 0.011875 0.011875 0.020625 0.020625 0.020625 0.020625 0.020625 0.020625 0.020625 0.020625 0.011875 0.011875 0.011875 0.011875 0.011875 0.011875 0.011875 0.011875 0.011875 0.011875 0.011875 0.011875 0.011875 0.011875 0.020625 0.020625 0.020625 0.020625 0.020625 0.020625 0.020625 0.020625 0.011875 0.011875 0.011875 0.011875 0.011875 0.011875 0.011875 0.011875 0.011875 0.011875 0.011875 0.011875 0.011875 0.011875 0.020625 0.020625 0.020625 0.020625 0.020625 0.020625 0.020625 0.020625 0.011875 0.011875 0.011875 0.011875 0.011875 0.011875 0.011875 0.011875 0.011875 0.011875 0.011875 0.011875 0.011875 0.011875 0.020625 0.020625 0.020625 0.020625 0.020625 0.020625 0.020625 0.020625 0.011875 0.011875 0.011875 0.011875 0.011875 0.011875 0.011875 0.011875 0.011875 0.011875 0.011875 0.011875 0.011875 0.011875 0.020625 0.020625 0.020625 0.020625 0.020625 0.020625 0.020625 0.020625 0.011875 0.011875 0.011875 0.011875 0.011875 0.011875 0.011875 0.011875 0.011875 0.011875 0.011875 0.011875 0.011875 0.011875 0.020625 0.020625 0.020625 0.020625 0.020625 0.020625 0.020625 0.020625 0.011875 0.011875 0.011875 0.011875 0.011875 0.011875 0.011875 0.011875 0.011875 0.011875 0.011875 0.011875 0.011875 0.011875 0.020625 0.020625 0.020625 0.020625 0.020625 0.020625 0.020625 0.020625 0.011875 0.011875 0.011875 0.011875 0.011875 0.011875 0.011875 0.011875 0.011875 0.011875 0.011875 0.011875 0.011875 0.011875 0.020625 0.020625 0.020625 0.020625 0.020625 0.020625 0.020625 0.020625 0.011875 0.011875 0.011875 0.011875 0.011875 0.011875 0.011875 0.011875 0.011875 0.011875 0.011875 0.011875 0.011875 0.011875 0.020625 0.020625 0.020625 0.020625 0.020625 0.020625 0.020625 0.020625 0.011875 0.011875 0.011875 0.011875 0.011875 0.011875 0.011875 0.011875 0.011875 0.011875 0.011875 0.011875 0.011875 0.011875 0.020625 0.020625 0.020625 0.020625 0.020625 0.020625 0.020625 0.020625 0.011875 0.011875 0.011875 0.011875 0.011875 0.011875 0.011875 0.011875 0.011875 0.011875 0.011875 0.011875 0.011875 0.011875 0.020625 0.020625 0.020625 0.020625 0.020625 0.020625 0.020625 0.020625 0.011875 0.011875 0.011875 0.011875 0.011875 0.011875 0.011875 0.011875 0.011875 0.011875 0.011875 0.011875 0.011875 0.011875 0.020625 0.020625 0.020625 0.020625 0.020625 0.020625 0.020625 0.020625 0.011875 0.011875 0.011875 0.011875 0.011875 0.011875 0.011875 0.011875 0.011875 0.011875 0.011875 0.011875 0.011875 0.011875 0.020625 0.020625 0.020625 0.020625 0.020625 0.020625 0.020625 0.020625 0.011875 0.011875 0.011875 0.011875 0.011875 0.011875 0.011875 0.011875 0.011875 0.011875 0.011875 0.011875 0.011875 0.011875 0.020625 0.020625 0.020625 0.020625 0.020625 0.020625 0.020625 0.020625 0.011875 0.011875 0.011875 0.011875 0.011875 0.011875 0.011875 0.011875 0.011875 0.011875 0.011875 0.011875 0.011875 0.011875 0.020625 0.020625 0.020625 0.020625 0.020625 0.020625 0.020625 0.020625 0.011875 0.011875 0.011875 0.011875 0.011875 0.011875 0.011875 0.011875 0.011875 0.011875 0.011875 0.011875 0.011875 0.011875 0.020625 0.020625 0.020625 0.020625 0.020625 0.020625 0.020625 0.020625 0.011875 0.011875 0.011875 0.011875 0.011875 0.011875 0.011875 0.011875 0.011875 0.011875 0.011875 0.011875 0.011875 0.011875 0.020625 0.020625 0.020625 0.020625 0.020625 0.020625 0.020625 0.020625 0.011875 0.011875 0.011875 0.011875 0.011875 0.011875 0.011875 0.011875 0.011875 0.011875 0.011875 0.011875 0.011875 0.011875 0.020625 0.020625 0.020625 0.020625 0.020625 0.020625 0.020625 0.020625 0.011875 0.011875 0.011875 0.011875 0.011875 0.011875 0.011875 0.011875 0.011875 0.011875 0.011875 0.011875 0.011875 0.011875 0.020625 0.020625 0.020625 0.020625 0.020625 0.020625 0.020625 0.020625 0.011875 0.011875 0.011875 0.011875 0.011875 0.011875 0.011875 0.011875 0.011875 0.011875 0.011875 0.011875 0.011875 0.011875 0.020625 0.020625 0.020625 0.020625 0.020625 0.020625 0.020625 0.020625 0.011875 0.011875 0.011875 0.011875 0.011875 0.011875 0.011875 0.011875 0.011875 0.011875 0.011875 0.011875 0.011875 0.011875 0.020625 0.020625 0.020625 0.020625 0.020625 0.020625 0.020625 0.020625 0.011875 0.011875 0.011875 0.011875 0.011875 0.011875 0.011875 0.011875 0.011875 0.011875 0.011875 0.011875 0.011875 0.011875 0.020625 0.020625 0.020625 0.020625 0.020625 0.020625 0.020625 0.020625 0.011875 0.011875 0.011875 0.011875 0.011875 0.011875 0.011875 0.011875 0.011875 0.011875 0.011875 0.011875 0.011875 0.011875 0.020625 0.020625 0.020625 0.020625 0.020625 0.020625 0.020625 0.020625 0.011875 0.011875 0.011875 0.011875 0.011875 0.011875 0.011875 0.011875 0.011875 0.011875 0.011875 0.011875 0.011875 0.011875 0.020625 0.020625 0.020625 0.020625 0.020625 0.020625 0.020625 0.020625 0.011875 0.011875 0.011875 0.011875 0.011875 0.011875 0.011875 0.011875 0.011875 0.011875 0.011875 0.011875 0.011875 0.011875 0.020625 0.020625 0.020625 0.020625 0.020625 0.020625 0.020625 0.020625 0.011875 0.011875 0.011875 0.011875 0.011875 0.011875 0.011875 0.011875 0.011875 0.011875 0.011875 0.011875 0.011875 0.011875 0.020625 0.020625 0.020625 0.020625 0.020625 0.020625 0.020625 0.020625 0.011875 0.011875 0.011875 0.011875 0.011875 0.011875 0.011875 0.011875 0.011875 0.011875 0.011875 0.011875 0.011875 0.011875 0.020625 0.020625 0.020625 0.020625 0.020625 0.020625 0.020625 0.020625 0.011875 0.011875 0.011875 0.011875 0.011875 0.011875 0.011875 0.011875 0.011875 0.011875 0.011875 0.011875 0.011875 0.011875 0.020625 0.020625 0.020625 0.020625 0.020625 0.020625 0.020625 0.020625 0.011875 0.011875 0.011875 0.011875 0.011875 0.011875 0.011875 0.011875 0.011875 0.011875 0.011875 0.011875 0.011875 0.011875 0.020625 0.020625 0.020625 0.020625 0.020625 0.020625 0.020625 0.020625 0.011875 0.011875 0.011875 0.011875 0.011875 0.011875 0.011875 0.011875 0.011875 0.011875 0.011875 0.011875 0.011875 0.011875 0.020625 0.020625 0.020625 0.020625 0.020625 0.020625 0.020625 0.020625 0.011875 0.011875 0.011875 0.011875 0.011875 0.011875 0.011875 0.011875 0.011875 0.011875 0.011875 0.011875 0.011875 0.011875 0.020625 0.020625 0.020625 0.020625 0.020625 0.020625 0.020625 0.020625 0.011875 0.011875 0.011875 0.011875 0.011875 0.011875 0.011875 0.011875 0.011875 0.011875 0.011875 0.011875 0.011875 0.011875 0.020625 0.020625 0.020625 0.020625 0.020625 0.020625 0.020625 0.020625 0.011875 0.011875 0.011875 0.011875 0.011875 0.011875 0.011875 0.011875 0.011875 0.011875 0.011875 0.011875 0.011875 0.011875 0.020625 0.020625 0.020625 0.020625 0.020625 0.020625 0.020625 0.020625 0.011875 0.011875 0.011875 0.011875 0.011875 0.011875 0.011875 0.011875 0.011875 0.011875 0.011875 0.011875 0.011875 0.011875 0.020625 0.020625 0.020625 0.020625 0.020625 0.020625 0.020625 0.020625 0.011875 0.011875 0.011875 0.011875 0.011875 0.011875 0.011875 0.011875 0.011875 0.011875 0.011875 0.011875 0.011875 0.011875 0.020625 0.020625 0.020625 0.020625 0.020625 0.020625 0.020625 0.020625 0.011875 0.011875 0.011875 0.011875 0.011875 0.011875 0.011875 0.011875 0.011875 0.011875 0.011875 0.011875 0.011875 0.011875 0.020625 0.020625 0.020625 0.020625 0.020625 0.020625 0.020625 0.020625 0.011875 0.011875 0.011875 0.011875 0.011875 0.011875 0.011875 0.011875 0.011875 0.011875 0.011875 0.011875 0.011875 0.011875 0.020625 0.020625 0.020625 0.020625 0.020625 0.020625 0.020625 0.020625 0.011875 0.011875 0.011875 0.011875 0.011875 0.011875 0.011875 0.011875 0.011875 0.011875 0.011875 0.011875 0.011875 0.011875 0.020625 0.020625 0.020625 0.020625 0.020625 0.020625 0.020625 0.020625 0.011875 0.011875 0.011875 0.011875 0.011875 0.011875 0.011875 0.011875 0.011875 0.011875 0.011875 0.011875 0.011875 0.011875 0.020625 0.020625 0.020625 0.020625 0.020625 0.020625 0.020625 0.020625 0.011875 0.011875 0.011875 0.011875 0.011875 0.011875 0.011875 0.011875 0.011875 0.011875 0.011875 0.011875 0.011875 0.011875 0.020625 0.020625 0.020625 0.020625 0.020625 0.020625 0.020625 0.020625 0.011875 0.011875 0.011875 0.011875 0.011875 0.011875 0.011875 0.011875 0.011875 0.011875 0.011875 0.011875 0.011875 0.011875 0.020625 0.020625 0.020625 0.020625 0.020625 0.020625 0.020625 0.020625 0.011875 0.011875 0.011875 0.011875 0.011875 0.011875 0.011875 0.011875 0.011875 0.011875 0.011875 0.011875 0.011875 0.011875 0.020625 0.020625 0.020625 0.020625 0.020625 0.020625 0.020625 0.020625 0.011875 0.011875 0.011875 0.011875 0.011875 0.011875 0.011875 0.011875 0.011875 0.011875 0.011875 0.011875 0.011875 0.011875 0.020625 0.020625 0.020625 0.020625 0.020625 0.020625 0.020625 0.020625 0.011875 0.011875 0.011875 0.011875 0.011875 0.011875 0.011875 0.011875 0.011875 0.011875 0.011875 0.011875 0.011875 0.011875 0.020625 0.020625 0.020625 0.020625 0.020625 0.020625 0.020625 0.020625 0.011875 0.011875 0.011875 0.011875 0.011875 0.011875 0.011875 0.011875 0.011875 0.011875 0.011875 0.011875 0.011875 0.011875 0.020625 0.020625 0.020625 0.020625 0.020625 0.020625 0.020625 0.020625 0.011875 0.011875 0.011875 0.011875 0.011875 0.011875 0.011875 0.011875 0.011875 0.011875 0.011875 0.011875 0.011875 0.011875 0.020625 0.020625 0.020625 0.020625 0.020625 0.020625 0.020625 0.020625 0.011875 0.011875 0.011875 0.011875 0.011875 0.011875 0.011875 0.011875 0.011875 0.011875 0.011875 0.011875 0.011875 0.011875 0.020625 0.020625 0.020625 0.020625 0.020625 0.020625 0.020625 0.020625 0.011875 0.011875 0.011875 0.011875 0.011875 0.011875 0.011875 0.011875 0.011875 0.011875 0.011875 0.011875 0.011875 0.011875 0.020625 0.020625 0.020625 0.020625 0.020625 0.020625 0.020625 0.020625 0.011875 0.011875 0.011875 0.011875 0.011875 0.011875 0.011875 0.011875 0.011875 0.011875 0.011875 0.011875 0.011875 0.011875 0.020625 0.020625 0.020625 0.020625 0.020625 0.020625 0.020625 0.020625 0.011875 0.011875 0.011875 0.011875 0.011875 0.011875 0.011875 0.011875 0.011875 0.011875 0.011875 0.011875 0.011875 0.011875 0.020625 0.020625 0.020625 0.020625 0.020625 0.020625 0.020625 0.020625 0.011875 0.011875 0.011875 0.011875 0.011875 0.011875 0.011875 0.011875 0.011875 0.011875 0.011875 0.011875 0.011875 0.011875 0.020625 0.020625 0.020625 0.020625 0.020625 0.020625 0.020625 0.020625 0.011875 0.011875 0.011875 0.011875 0.011875 0.011875 0.011875 0.011875 0.011875 0.011875 0.011875 0.011875 0.011875 0.011875 0.020625 0.020625 0.020625 0.020625 0.020625 0.020625 0.020625 0.020625 0.011875 0.011875 0.011875 0.011875 0.011875 0.011875 0.011875 0.011875 0.011875 0.011875 0.011875 0.011875 0.011875 0.011875 0.020625 0.020625 0.020625 0.020625 0.020625 0.020625 0.020625 0.020625 0.011875 0.011875 0.011875 0.011875 0.011875 0.011875 0.011875 0.011875 0.011875 0.011875 0.011875 0.011875 0.011875 0.011875 0.020625 0.020625 0.020625 0.020625 0.020625 0.020625 0.020625 0.020625 0.011875 0.011875 0.011875 0.011875 0.011875 0.011875 0.011875 0.011875 0.011875 0.011875 0.011875 0.011875 0.011875 0.011875 0.020625 0.020625 0.020625 0.020625 0.020625 0.020625 0.020625 0.020625 0.011875 0.011875 0.011875 0.011875 0.011875 0.011875 0.011875 0.011875 0.011875 0.011875 0.011875 0.011875 0.011875 0.011875 0.020625 0.020625 0.020625 0.020625 0.020625 0.020625 0.020625 0.020625 0.011875 0.011875 0.011875 0.011875 0.011875 0.011875 0.011875 0.011875 0.011875 0.011875 0.011875 0.011875 0.011875 0.011875 0.020625 0.020625 0.020625 0.020625 0.020625 0.020625 0.020625 0.020625 0.011875 0.011875 0.011875 0.011875 0.011875 0.011875 0.011875 0.011875 0.011875 0.011875 0.011875 0.011875 0.011875 0.011875 0.020625 0.020625 0.020625 0.020625 0.020625 0.020625 0.020625 0.020625 0.011875 0.011875 0.011875 0.011875 0.011875 0.011875 0.011875 0.011875 0.011875 0.011875 0.011875 0.011875 0.011875 0.011875 0.020625 0.020625 0.020625 0.020625 0.020625 0.020625 0.020625 0.020625 0.011875 0.011875 0.011875 0.011875 0.011875 0.011875 0.011875 0.011875 0.011875 0.011875 0.011875 0.011875 0.011875 0.011875 0.02