<?xml version="1.0"?><VTKFile type="PolyData" version="0.1" byte_order="LittleEndian">
<PolyData>
<Piece NumberOfLines="15883" NumberOfPoints="15884">
<CellData doubles=" CellData">
<DataArray type="Float32" Name="radius" NumberOfComponents="1" format="ascii" >
0.054 0.054 0.054 0.054 0.054 0.054 0.054 0.054 0.054 0.054 0.054 0.054 0.054 0.054 0.054 0.054 0.054 0.054 0.054 0.054 0.054 0.054 0.054 0.054 0.054 0.054 0.054 0.054 0.054 0.054 0.054 0.054 0.054 0.054 0.054 0.054 0.054 0.054 0.054 0.054 0.054 0.054 0.054 0.054 0.054 0.054 0.054 0.054 0.054 0.054 0.054 0.054 0.054 0.054 0.054 0.054 0.054 0.054 0.054 0.054 0.054 0.054 0.054 0.054 0.054 0.054 0.054 0.054 0.054 0.054 0.054 0.054 0.054 0.054 0.054 0.054 0.054 0.054 0.054 0.054 0.054 0.054 0.054 0.054 0.054 0.054 0.054 0.054 0.054 0.054 0.054 0.054 0.054 0.054 0.054 0.054 0.054 0.054 0.054 0.054 0.054 0.054 0.054 0.054 0.054 0.054 0.054 0.054 0.054 0.054 0.054 0.054 0.054 0.054 0.054 0.054 0.054 0.054 0.054 0.054 0.054 0.054 0.054 0.054 0.054 0.054 0.054 0.054 0.054 0.054 0.054 0.054 0.054 0.054 0.054 0.054 0.054 0.054 0.054 0.054 0.054 0.054 0.054 0.054 0.054 0.054 0.054 0.054 0.054 0.054 0.054 0.054 0.054 0.054 0.054 0.054 0.054 0.054 0.054 0.054 0.054 0.054 0.054 0.054 0.054 0.054 0.054 0.054 0.054 0.054 0.054 0.0135 0.0135 0.0135 0.0135 0.0135 0.0135 0.0135 0.0135 0.0135 0.0135 0.0135 0.0135 0.0135 0.0135 0.0135 0.0135 0.0135 0.0135 0.0135 0.0135 0.0135 0.0135 0.0135 0.0135 0.01875 0.01875 0.01875 0.01875 0.01875 0.01875 0.01875 0.01875 0.01875 0.01875 0.0135 0.0135 0.0135 0.0135 0.0135 0.0135 0.0135 0.0135 0.0135 0.0135 0.0135 0.0135 0.0135 0.0135 0.0135 0.0135 0.0135 0.0135 0.0135 0.0135 0.0135 0.0135 0.0135 0.0135 0.0135 0.0135 0.0135 0.0135 0.0135 0.0135 0.01875 0.01875 0.01875 0.01875 0.01875 0.01875 0.01875 0.01875 0.01875 0.01875 0.0135 0.0135 0.0135 0.0135 0.0135 0.0135 0.0135 0.0135 0.0135 0.0135 0.0135 0.0135 0.0135 0.0135 0.0135 0.0135 0.0135 0.0135 0.0135 0.0135 0.0135 0.0135 0.0135 0.0135 0.01875 0.01875 0.01875 0.01875 0.01875 0.01875 0.01875 0.01875 0.01875 0.01875 0.0135 0.0135 0.0135 0.0135 0.0135 0.0135 0.0135 0.0135 0.0135 0.0135 0.0135 0.0135 0.0135 0.0135 0.0135 0.0135 0.0135 0.0135 0.0135 0.0135 0.0135 0.0135 0.0135 0.0135 0.0135 0.0135 0.0135 0.0135 0.0135 0.0135 0.0135 0.0135 0.0135 0.0135 0.0135 0.0135 0.01875 0.01875 0.01875 0.01875 0.01875 0.01875 0.01875 0.01875 0.01875 0.0135 0.0135 0.0135 0.0135 0.0135 0.0135 0.0135 0.0135 0.0135 0.0135 0.0135 0.0135 0.0135 0.0135 0.0135 0.0135 0.0135 0.0135 0.0135 0.0135 0.0135 0.0135 0.0135 0.0135 0.0135 0.0135 0.0135 0.0135 0.0135 0.0135 0.0135 0.0135 0.0135 0.0135 0.01875 0.01875 0.01875 0.01875 0.01875 0.01875 0.01875 0.01875 0.01875 0.01875 0.0135 0.0135 0.0135 0.0135 0.0135 0.0135 0.0135 0.0135 0.0135 0.0135 0.0135 0.0135 0.0135 0.0135 0.01875 0.01875 0.01875 0.01875 0.01875 0.01875 0.01875 0.01875 0.01875 0.0135 0.0135 0.0135 0.0135 0.0135 0.0135 0.0135 0.0135 0.0135 0.0135 0.0135 0.0135 0.0135 0.0135 0.0135 0.01875 0.01875 0.01875 0.01875 0.01875 0.01875 0.01875 0.01875 0.01875 0.01875 0.01875 0.0135 0.0135 0.0135 0.0135 0.0135 0.0135 0.0135 0.0135 0.0135 0.0135 0.0135 0.0135 0.0135 0.0135 0.0135 0.01875 0.01875 0.01875 0.01875 0.01875 0.01875 0.01875 0.01875 0.01875 0.01875 0.01875 0.01875 0.0135 0.0135 0.0135 0.0135 0.0135 0.0135 0.0135 0.0135 0.0135 0.0135 0.0135 0.0135 0.0135 0.0135 0.0135 0.01875 0.01875 0.01875 0.01875 0.01875 0.01875 0.01875 0.01875 0.01875 0.01875 0.01875 0.01875 0.0135 0.0135 0.0135 0.0135 0.0135 0.0135 0.0135 0.0135 0.0135 0.0135 0.0135 0.0135 0.01875 0.01875 0.01875 0.01875 0.01875 0.01875 0.01875 0.01875 0.01875 0.01875 0.01875 0.01875 0.0135 0.0135 0.0135 0.0135 0.0135 0.0135 0.0135 0.0135 0.0135 0.0135 0.0135 0.0135 0.01875 0.01875 0.01875 0.01875 0.01875 0.01875 0.01875 0.01875 0.01875 0.01875 0.01875 0.01875 0.0135 0.0135 0.0135 0.0135 0.0135 0.0135 0.0135 0.0135 0.0135 0.0135 0.0135 0.0135 0.01875 0.01875 0.01875 0.01875 0.01875 0.01875 0.01875 0.01875 0.01875 0.01875 0.01875 0.01875 0.0135 0.0135 0.0135 0.0135 0.0135 0.0135 0.0135 0.0135 0.0135 0.0135 0.0135 0.0135 0.01875 0.01875 0.01875 0.01875 0.01875 0.01875 0.01875 0.01875 0.01875 0.01875 0.01875 0.01875 0.0135 0.0135 0.0135 0.0135 0.0135 0.0135 0.0135 0.0135 0.0135 0.0135 0.0135 0.0135 0.01875 0.01875 0.01875 0.01875 0.01875 0.01875 0.01875 0.01875 0.01875 0.01875 0.01875 0.01875 0.0135 0.0135 0.0135 0.0135 0.0135 0.0135 0.0135 0.0135 0.0135 0.0135 0.0135 0.0135 0.01875 0.01875 0.01875 0.01875 0.01875 0.01875 0.01875 0.01875 0.01875 0.01875 0.01875 0.01875 0.0135 0.0135 0.0135 0.0135 0.0135 0.0135 0.0135 0.0135 0.0135 0.0135 0.0135 0.0135 0.01875 0.01875 0.01875 0.01875 0.01875 0.01875 0.01875 0.01875 0.01875 0.01875 0.01875 0.01875 0.0135 0.0135 0.0135 0.0135 0.0135 0.0135 0.0135 0.0135 0.0135 0.0135 0.0135 0.0135 0.01875 0.01875 0.01875 0.01875 0.01875 0.01875 0.01875 0.01875 0.01875 0.01875 0.01875 0.01875 0.0135 0.0135 0.0135 0.0135 0.0135 0.0135 0.0135 0.0135 0.0135 0.0135 0.0135 0.0135 0.0135 0.0135 0.0135 0.01875 0.01875 0.01875 0.01875 0.01875 0.01875 0.01875 0.01875 0.01875 0.01875 0.01875 0.01875 0.0135 0.0135 0.0135 0.0135 0.0135 0.0135 0.0135 0.0135 0.0135 0.0135 0.0135 0.0135 0.01875 0.01875 0.01875 0.01875 0.01875 0.01875 0.01875 0.01875 0.01875 0.01875 0.01875 0.01875 0.0135 0.0135 0.0135 0.0135 0.0135 0.0135 0.0135 0.0135 0.0135 0.0135 0.0135 0.0135 0.01875 0.01875 0.01875 0.01875 0.01875 0.01875 0.01875 0.01875 0.01875 0.01875 0.01875 0.01875 0.0135 0.0135 0.0135 0.0135 0.0135 0.0135 0.0135 0.0135 0.0135 0.0135 0.0135 0.0135 0.01875 0.01875 0.01875 0.01875 0.01875 0.01875 0.01875 0.01875 0.01875 0.01875 0.01875 0.01875 0.0135 0.0135 0.0135 0.0135 0.0135 0.0135 0.0135 0.0135 0.0135 0.0135 0.0135 0.0135 0.01875 0.01875 0.01875 0.01875 0.01875 0.01875 0.01875 0.01875 0.01875 0.01875 0.01875 0.01875 0.0135 0.0135 0.0135 0.0135 0.0135 0.0135 0.0135 0.0135 0.0135 0.0135 0.0135 0.0135 0.01875 0.01875 0.01875 0.01875 0.01875 0.01875 0.01875 0.01875 0.01875 0.01875 0.01875 0.01875 0.0135 0.0135 0.0135 0.0135 0.0135 0.0135 0.0135 0.0135 0.0135 0.0135 0.0135 0.0135 0.01875 0.01875 0.01875 0.01875 0.01875 0.01875 0.01875 0.01875 0.01875 0.01875 0.01875 0.01875 0.0135 0.0135 0.0135 0.0135 0.0135 0.0135 0.0135 0.0135 0.0135 0.0135 0.0135 0.0135 0.01875 0.01875 0.01875 0.01875 0.01875 0.01875 0.01875 0.01875 0.01875 0.01875 0.01875 0.01875 0.0135 0.0135 0.0135 0.0135 0.0135 0.0135 0.0135 0.0135 0.0135 0.0135 0.0135 0.0135 0.01875 0.01875 0.01875 0.01875 0.01875 0.01875 0.01875 0.01875 0.01875 0.01875 0.01875 0.01875 0.0135 0.0135 0.0135 0.0135 0.0135 0.0135 0.0135 0.0135 0.0135 0.0135 0.0135 0.0135 0.01875 0.01875 0.01875 0.01875 0.01875 0.01875 0.01875 0.01875 0.01875 0.01875 0.01875 0.01875 0.0135 0.0135 0.0135 0.0135 0.0135 0.0135 0.0135 0.0135 0.0135 0.0135 0.0135 0.0135 0.01875 0.01875 0.01875 0.01875 0.01875 0.01875 0.01875 0.01875 0.01875 0.01875 0.01875 0.01875 0.0135 0.0135 0.0135 0.0135 0.0135 0.0135 0.0135 0.0135 0.0135 0.0135 0.0135 0.0135 0.01875 0.01875 0.01875 0.01875 0.01875 0.01875 0.01875 0.01875 0.01875 0.01875 0.01875 0.01875 0.0135 0.0135 0.0135 0.0135 0.0135 0.0135 0.0135 0.0135 0.0135 0.0135 0.0135 0.0135 0.01875 0.01875 0.01875 0.01875 0.01875 0.01875 0.01875 0.01875 0.01875 0.01875 0.01875 0.01875 0.0135 0.0135 0.0135 0.0135 0.0135 0.0135 0.0135 0.0135 0.0135 0.0135 0.0135 0.0135 0.01875 0.01875 0.01875 0.01875 0.01875 0.01875 0.01875 0.01875 0.01875 0.01875 0.01875 0.01875 0.0135 0.0135 0.0135 0.0135 0.0135 0.0135 0.0135 0.0135 0.0135 0.0135 0.0135 0.0135 0.01875 0.01875 0.01875 0.01875 0.01875 0.01875 0.01875 0.01875 0.01875 0.01875 0.01875 0.01875 0.0135 0.0135 0.0135 0.0135 0.0135 0.0135 0.0135 0.0135 0.0135 0.0135 0.0135 0.0135 0.01875 0.01875 0.01875 0.01875 0.01875 0.01875 0.01875 0.01875 0.01875 0.01875 0.01875 0.01875 0.0135 0.0135 0.0135 0.0135 0.0135 0.0135 0.0135 0.0135 0.0135 0.0135 0.0135 0.0135 0.01875 0.01875 0.01875 0.01875 0.01875 0.01875 0.01875 0.01875 0.01875 0.01875 0.01875 0.01875 0.0135 0.0135 0.0135 0.0135 0.0135 0.0135 0.0135 0.0135 0.0135 0.0135 0.0135 0.0135 0.01875 0.01875 0.01875 0.01875 0.01875 0.01875 0.01875 0.01875 0.01875 0.01875 0.01875 0.01875 0.0135 0.0135 0.0135 0.0135 0.0135 0.0135 0.0135 0.0135 0.0135 0.0135 0.0135 0.0135 0.01875 0.01875 0.01875 0.01875 0.01875 0.01875 0.01875 0.01875 0.01875 0.01875 0.01875 0.01875 0.0135 0.0135 0.0135 0.0135 0.0135 0.0135 0.0135 0.0135 0.0135 0.0135 0.0135 0.0135 0.01875 0.01875 0.01875 0.01875 0.01875 0.01875 0.01875 0.01875 0.01875 0.01875 0.01875 0.01875 0.0135 0.0135 0.0135 0.0135 0.0135 0.0135 0.0135 0.0135 0.0135 0.0135 0.0135 0.0135 0.01875 0.01875 0.01875 0.01875 0.01875 0.01875 0.01875 0.01875 0.01875 0.01875 0.01875 0.01875 0.0135 0.0135 0.0135 0.0135 0.0135 0.0135 0.0135 0.0135 0.0135 0.0135 0.0135 0.0135 0.01875 0.01875 0.01875 0.01875 0.01875 0.01875 0.01875 0.01875 0.01875 0.01875 0.01875 0.01875 0.0135 0.0135 0.0135 0.0135 0.0135 0.0135 0.0135 0.0135 0.0135 0.0135 0.0135 0.0135 0.01875 0.01875 0.01875 0.01875 0.01875 0.01875 0.01875 0.01875 0.01875 0.01875 0.01875 0.01875 0.0135 0.0135 0.0135 0.0135 0.0135 0.0135 0.0135 0.0135 0.0135 0.0135 0.0135 0.0135 0.01875 0.01875 0.01875 0.01875 0.01875 0.01875 0.01875 0.01875 0.01875 0.01875 0.01875 0.01875 0.0135 0.0135 0.0135 0.0135 0.0135 0.0135 0.0135 0.0135 0.0135 0.0135 0.0135 0.0135 0.01875 0.01875 0.01875 0.01875 0.01875 0.01875 0.01875 0.01875 0.01875 0.01875 0.01875 0.01875 0.0135 0.0135 0.0135 0.0135 0.0135 0.0135 0.0135 0.0135 0.0135 0.0135 0.0135 0.0135 0.01875 0.01875 0.01875 0.01875 0.01875 0.01875 0.01875 0.01875 0.01875 0.01875 0.01875 0.01875 0.0135 0.0135 0.0135 0.0135 0.0135 0.0135 0.0135 0.0135 0.0135 0.0135 0.0135 0.0135 0.01875 0.01875 0.01875 0.01875 0.01875 0.01875 0.01875 0.01875 0.01875 0.01875 0.01875 0.01875 0.0135 0.0135 0.0135 0.0135 0.0135 0.0135 0.0135 0.0135 0.0135 0.0135 0.0135 0.0135 0.01875 0.01875 0.01875 0.01875 0.01875 0.01875 0.01875 0.01875 0.01875 0.01875 0.01875 0.01875 0.0135 0.0135 0.0135 0.0135 0.0135 0.0135 0.0135 0.0135 0.0135 0.0135 0.0135 0.0135 0.01875 0.01875 0.01875 0.01875 0.01875 0.01875 0.01875 0.01875 0.01875 0.01875 0.01875 0.01875 0.0135 0.0135 0.0135 0.0135 0.0135 0.0135 0.0135 0.0135 0.0135 0.0135 0.0135 0.0135 0.01875 0.01875 0.01875 0.01875 0.01875 0.01875 0.01875 0.01875 0.01875 0.01875 0.01875 0.01875 0.0135 0.0135 0.0135 0.0135 0.0135 0.0135 0.0135 0.0135 0.0135 0.0135 0.0135 0.0135 0.01875 0.01875 0.01875 0.01875 0.01875 0.01875 0.01875 0.01875 0.01875 0.01875 0.01875 0.01875 0.0135 0.0135 0.0135 0.0135 0.0135 0.0135 0.0135 0.0135 0.0135 0.0135 0.0135 0.0135 0.01875 0.01875 0.01875 0.01875 0.01875 0.01875 0.01875 0.01875 0.01875 0.01875 0.01875 0.01875 0.0135 0.0135 0.0135 0.0135 0.0135 0.0135 0.0135 0.0135 0.0135 0.0135 0.0135 0.0135 0.01875 0.01875 0.01875 0.01875 0.01875 0.01875 0.01875 0.01875 0.01875 0.01875 0.01875 0.01875 0.0135 0.0135 0.0135 0.0135 0.0135 0.0135 0.0135 0.0135 0.0135 0.0135 0.0135 0.0135 0.01875 0.01875 0.01875 0.01875 0.01875 0.01875 0.01875 0.01875 0.01875 0.01875 0.01875 0.01875 0.0135 0.0135 0.0135 0.0135 0.0135 0.0135 0.0135 0.0135 0.0135 0.0135 0.0135 0.0135 0.01875 0.01875 0.01875 0.01875 0.01875 0.01875 0.01875 0.01875 0.01875 0.01875 0.01875 0.01875 0.0135 0.0135 0.0135 0.0135 0.0135 0.0135 0.0135 0.0135 0.0135 0.0135 0.0135 0.0135 0.01875 0.01875 0.01875 0.01875 0.01875 0.01875 0.01875 0.01875 0.01875 0.01875 0.01875 0.01875 0.0135 0.0135 0.0135 0.0135 0.0135 0.0135 0.0135 0.0135 0.0135 0.0135 0.0135 0.0135 0.01875 0.01875 0.01875 0.01875 0.01875 0.01875 0.01875 0.01875 0.01875 0.01875 0.01875 0.01875 0.0135 0.0135 0.0135 0.0135 0.0135 0.0135 0.0135 0.0135 0.0135 0.0135 0.0135 0.0135 0.01875 0.01875 0.01875 0.01875 0.01875 0.01875 0.01875 0.01875 0.01875 0.01875 0.01875 0.01875 0.0135 0.0135 0.0135 0.0135 0.0135 0.0135 0.0135 0.0135 0.0135 0.0135 0.0135 0.0135 0.01875 0.01875 0.01875 0.01875 0.01875 0.01875 0.01875 0.01875 0.01875 0.01875 0.01875 0.01875 0.0135 0.0135 0.0135 0.0135 0.0135 0.0135 0.0135 0.0135 0.0135 0.0135 0.0135 0.0135 0.01875 0.01875 0.01875 0.01875 0.01875 0.01875 0.01875 0.01875 0.01875 0.01875 0.01875 0.01875 0.0135 0.0135 0.0135 0.0135 0.0135 0.0135 0.0135 0.0135 0.0135 0.0135 0.0135 0.0135 0.01875 0.01875 0.01875 0.01875 0.01875 0.01875 0.01875 0.01875 0.01875 0.01875 0.01875 0.01875 0.0135 0.0135 0.0135 0.0135 0.0135 0.0135 0.0135 0.0135 0.0135 0.0135 0.0135 0.0135 0.01875 0.01875 0.01875 0.01875 0.01875 0.01875 0.01875 0.01875 0.01875 0.01875 0.01875 0.01875 0.0135 0.0135 0.0135 0.0135 0.0135 0.0135 0.0135 0.0135 0.0135 0.0135 0.0135 0.0135 0.01875 0.01875 0.01875 0.01875 0.01875 0.01875 0.01875 0.01875 0.01875 0.01875 0.01875 0.01875 0.0135 0.0135 0.0135 0.0135 0.0135 0.0135 0.0135 0.0135 0.0135 0.0135 0.0135 0.0135 0.01875 0.01875 0.01875 0.01875 0.01875 0.01875 0.01875 0.01875 0.01875 0.01875 0.01875 0.01875 0.0135 0.0135 0.0135 0.0135 0.0135 0.0135 0.0135 0.0135 0.0135 0.0135 0.0135 0.0135 0.01875 0.01875 0.01875 0.01875 0.01875 0.01875 0.01875 0.01875 0.01875 0.01875 0.01875 0.01875 0.0135 0.0135 0.0135 0.0135 0.0135 0.0135 0.0135 0.0135 0.0135 0.0135 0.0135 0.0135 0.01875 0.01875 0.01875 0.01875 0.01875 0.01875 0.01875 0.01875 0.01875 0.01875 0.01875 0.01875 0.0135 0.0135 0.0135 0.0135 0.0135 0.0135 0.0135 0.0135 0.0135 0.0135 0.0135 0.0135 0.01875 0.01875 0.01875 0.01875 0.01875 0.01875 0.01875 0.01875 0.01875 0.01875 0.01875 0.01875 0.0135 0.0135 0.0135 0.0135 0.0135 0.0135 0.0135 0.0135 0.0135 0.0135 0.0135 0.0135 0.01875 0.01875 0.01875 0.01875 0.01875 0.01875 0.01875 0.01875 0.01875 0.01875 0.01875 0.01875 0.0135 0.0135 0.0135 0.0135 0.0135 0.0135 0.0135 0.0135 0.0135 0.0135 0.0135 0.0135 0.01875 0.01875 0.01875 0.01875 0.01875 0.01875 0.01875 0.01875 0.01875 0.01875 0.01875 0.01875 0.0135 0.0135 0.0135 0.0135 0.0135 0.0135 0.0135 0.0135 0.0135 0.0135 0.0135 0.0135 0.01875 0.01875 0.01875 0.01875 0.01875 0.01875 0.01875 0.01875 0.01875 0.01875 0.01875 0.01875 0.0135 0.0135 0.0135 0.0135 0.0135 0.0135 0.0135 0.0135 0.0135 0.0135 0.0135 0.0135 0.01875 0.01875 0.01875 0.01875 0.01875 0.01875 0.01875 0.01875 0.01875 0.01875 0.01875 0.01875 0.0135 0.0135 0.0135 0.0135 0.0135 0.0135 0.0135 0.0135 0.0135 0.0135 0.0135 0.0135 0.01875 0.01875 0.01875 0.01875 0.01875 0.01875 0.01875 0.01875 0.01875 0.01875 0.01875 0.01875 0.0135 0.0135 0.0135 0.0135 0.0135 0.0135 0.0135 0.0135 0.0135 0.0135 0.0135 0.0135 0.01875 0.01875 0.01875 0.01875 0.01875 0.01875 0.01875 0.01875 0.01875 0.01875 0.01875 0.01875 0.0135 0.0135 0.0135 0.0135 0.0135 0.0135 0.0135 0.0135 0.0135 0.0135 0.0135 0.0135 0.01875 0.01875 0.01875 0.01875 0.01875 0.01875 0.01875 0.01875 0.01875 0.01875 0.01875 0.01875 0.0135 0.0135 0.0135 0.0135 0.0135 0.0135 0.0135 0.0135 0.0135 0.0135 0.0135 0.0135 0.01875 0.01875 0.01875 0.01875 0.01875 0.01875 0.01875 0.01875 0.01875 0.01875 0.01875 0.01875 0.0135 0.0135 0.0135 0.0135 0.0135 0.0135 0.0135 0.0135 0.0135 0.0135 0.0135 0.0135 0.01875 0.01875 0.01875 0.01875 0.01875 0.01875 0.01875 0.01875 0.01875 0.01875 0.01875 0.01875 0.0135 0.0135 0.0135 0.0135 0.0135 0.0135 0.0135 0.0135 0.0135 0.0135 0.0135 0.0135 0.01875 0.01875 0.01875 0.01875 0.01875 0.01875 0.01875 0.01875 0.01875 0.01875 0.01875 0.01875 0.0135 0.0135 0.0135 0.0135 0.0135 0.0135 0.0135 0.0135 0.0135 0.0135 0.0135 0.0135 0.01875 0.01875 0.01875 0.01875 0.01875 0.01875 0.01875 0.01875 0.01875 0.01875 0.01875 0.01875 0.0135 0.0135 0.0135 0.0135 0.0135 0.0135 0.0135 0.0135 0.0135 0.0135 0.0135 0.0135 0.01875 0.01875 0.01875 0.01875 0.01875 0.01875 0.01875 0.01875 0.01875 0.01875 0.01875 0.01875 0.0135 0.0135 0.0135 0.0135 0.0135 0.0135 0.0135 0.0135 0.0135 0.0135 0.0135 0.0135 0.01875 0.01875 0.01875 0.01875 0.01875 0.01875 0.01875 0.01875 0.01875 0.01875 0.01875 0.01875 0.0135 0.0135 0.0135 0.0135 0.0135 0.0135 0.0135 0.0135 0.0135 0.0135 0.0135 0.0135 0.01875 0.01875 0.01875 0.01875 0.01875 0.01875 0.01875 0.01875 0.01875 0.01875 0.01875 0.01875 0.0135 0.0135 0.0135 0.0135 0.0135 0.0135 0.0135 0.0135 0.0135 0.0135 0.0135 0.0135 0.01875 0.01875 0.01875 0.01875 0.01875 0.01875 0.01875 0.01875 0.01875 0.01875 0.01875 0.01875 0.0135 0.0135 0.0135 0.0135 0.0135 0.0135 0.0135 0.0135 0.0135 0.0135 0.0135 0.0135 0.01875 0.01875 0.01875 0.01875 0.01875 0.01875 0.01875 0.01875 0.01875 0.01875 0.01875 0.01875 0.0135 0.0135 0.0135 0.0135 0.0135 0.0135 0.0135 0.0135 0.0135 0.0135 0.0135 0.0135 0.01875 0.01875 0.01875 0.01875 0.01875 0.01875 0.01875 0.01875 0.01875 0.01875 0.01875 0.01875 0.0135 0.0135 0.0135 0.0135 0.0135 0.0135 0.0135 0.0135 0.0135 0.0135 0.0135 0.0135 0.01875 0.01875 0.01875 0.01875 0.01875 0.01875 0.01875 0.01875 0.01875 0.01875 0.01875 0.01875 0.0135 0.0135 0.0135 0.0135 0.0135 0.0135 0.0135 0.0135 0.0135 0.0135 0.0135 0.0135 0.01875 0.01875 0.01875 0.01875 0.01875 0.01875 0.01875 0.01875 0.01875 0.01875 0.01875 0.01875 0.0135 0.0135 0.0135 0.0135 0.0135 0.0135 0.0135 0.0135 0.0135 0.0135 0.0135 0.0135 0.01875 0.01875 0.01875 0.01875 0.01875 0.01875 0.01875 0.01875 0.01875 0.01875 0.01875 0.01875 0.0135 0.0135 0.0135 0.0135 0.0135 0.0135 0.0135 0.0135 0.0135 0.0135 0.0135 0.0135 0.01875 0.01875 0.01875 0.01875 0.01875 0.01875 0.01875 0.01875 0.01875 0.01875 0.01875 0.01875 0.0135 0.0135 0.0135 0.0135 0.0135 0.0135 0.0135 0.0135 0.0135 0.0135 0.0135 0.0135 0.01875 0.01875 0.01875 0.01875 0.01875 0.01875 0.01875 0.01875 0.01875 0.01875 0.01875 0.01875 0.0135 0.0135 0.0135 0.0135 0.0135 0.0135 0.0135 0.0135 0.0135 0.0135 0.0135 0.0135 0.01875 0.01875 0.01875 0.01875 0.01875 0.01875 0.01875 0.01875 0.01875 0.01875 0.01875 0.01875 0.0135 0.0135 0.0135 0.0135 0.0135 0.0135 0.0135 0.0135 0.0135 0.0135 0.0135 0.0135 0.01875 0.01875 0.01875 0.01875 0.01875 0.01875 0.01875 0.01875 0.01875 0.01875 0.01875 0.01875 0.0135 0.0135 0.0135 0.0135 0.0135 0.0135 0.0135 0.0135 0.0135 0.0135 0.0135 0.0135 0.01875 0.01875 0.01875 0.01875 0.01875 0.01875 0.01875 0.01875 0.01875 0.01875 0.01875 0.01875 0.0135 0.0135 0.0135 0.0135 0.0135 0.0135 0.0135 0.0135 0.0135 0.0135 0.0135 0.0135 0.01875 0.01875 0.01875 0.01875 0.01875 0.01875 0.01875 0.01875 0.01875 0.01875 0.01875 0.01875 0.0135 0.0135 0.0135 0.0135 0.0135 0.0135 0.0135 0.0135 0.0135 0.0135 0.0135 0.0135 0.01875 0.01875 0.01875 0.01875 0.01875 0.01875 0.01875 0.01875 0.01875 0.01875 0.01875 0.01875 0.0135 0.0135 0.0135 0.0135 0.0135 0.0135 0.0135 0.0135 0.0135 0.0135 0.0135 0.0135 0.01875 0.01875 0.01875 0.01875 0.01875 0.01875 0.01875 0.01875 0.01875 0.01875 0.01875 0.01875 0.0135 0.0135 0.0135 0.0135 0.0135 0.0135 0.0135 0.0135 0.0135 0.0135 0.0135 0.0135 0.01875 0.01875 0.01875 0.01875 0.01875 0.01875 0.01875 0.01875 0.01875 0.01875 0.01875 0.01875 0.0135 0.0135 0.0135 0.0135 0.0135 0.0135 0.0135 0.0135 0.0135 0.0135 0.0135 0.0135 0.01875 0.01875 0.01875 0.01875 0.01875 0.01875 0.01875 0.01875 0.01875 0.01875 0.01875 0.01875 0.0135 0.0135 0.0135 0.0135 0.0135 0.0135 0.0135 0.0135 0.0135 0.0135 0.0135 0.0135 0.01875 0.01875 0.01875 0.01875 0.01875 0.01875 0.01875 0.01875 0.01875 0.01875 0.01875 0.01875 0.0135 0.0135 0.0135 0.0135 0.0135 0.0135 0.0135 0.0135 0.0135 0.0135 0.0135 0.0135 0.01875 0.01875 0.01875 0.01875 0.01875 0.01875 0.01875 0.01875 0.01875 0.01875 0.01875 0.01875 0.0135 0.0135 0.0135 0.0135 0.0135 0.0135 0.0135 0.0135 0.0135 0.0135 0.0135 0.0135 0.01875 0.01875 0.01875 0.01875 0.01875 0.01875 0.01875 0.01875 0.01875 0.01875 0.01875 0.01875 0.0135 0.0135 0.0135 0.0135 0.0135 0.0135 0.0135 0.0135 0.0135 0.0135 0.0135 0.0135 0.01875 0.01875 0.01875 0.01875 0.01875 0.01875 0.01875 0.01875 0.01875 0.01875 0.01875 0.01875 0.0135 0.0135 0.0135 0.0135 0.0135 0.0135 0.0135 0.0135 0.0135 0.0135 0.0135 0.0135 0.01875 0.01875 0.01875 0.01875 0.01875 0.01875 0.01875 0.01875 0.01875 0.01875 0.01875 0.01875 0.0135 0.0135 0.0135 0.0135 0.0135 0.0135 0.0135 0.0135 0.0135 0.0135 0.0135 0.0135 0.01875 0.01875 0.01875 0.01875 0.01875 0.01875 0.01875 0.01875 0.01875 0.01875 0.01875 0.01875 0.0135 0.0135 0.0135 0.0135 0.0135 0.0135 0.0135 0.0135 0.0135 0.0135 0.0135 0.0135 0.01875 0.01875 0.01875 0.01875 0.01875 0.01875 0.01875 0.01875 0.01875 0.01875 0.01875 0.01875 0.0135 0.0135 0.0135 0.0135 0.0135 0.0135 0.0135 0.0135 0.0135 0.0135 0.0135 0.0135 0.01875 0.01875 0.01875 0.01875 0.01875 0.01875 0.01875 0.01875 0.01875 0.01875 0.01875 0.01875 0.0135 0.0135 0.0135 0.0135 0.0135 0.0135 0.0135 0.0135 0.0135 0.0135 0.0135 0.0135 0.01875 0.01875 0.01875 0.01875 0.01875 0.01875 0.01875 0.01875 0.01875 0.01875 0.01875 0.01875 0.0135 0.0135 0.0135 0.0135 0.0135 0.0135 0.0135 0.0135 0.0135 0.0135 0.0135 0.0135 0.01875 0.01875 0.01875 0.01875 0.01875 0.01875 0.01875 0.01875 0.01875 0.01875 0.01875 0.01875 0.0135 0.0135 0.0135 0.0135 0.0135 0.0135 0.0135 0.0135 0.0135 0.0135 0.0135 0.0135 0.01875 0.01875 0.01875 0.01875 0.01875 0.01875 0.01875 0.01875 0.01875 0.01875 0.01875 0.01875 0.0135 0.0135 0.0135 0.0135 0.0135 0.0135 0.0135 0.0135 0.0135 0.0135 0.0135 0.0135 0.01875 0.01875 0.01875 0.01875 0.01875 0.01875 0.01875 0.01875 0.01875 0.01875 0.01875 0.01875 0.0135 0.0135 0.0135 0.0135 0.0135 0.0135 0.0135 0.0135 0.0135 0.0135 0.0135 0.0135 0.01875 0.01875 0.01875 0.01875 0.01875 0.01875 0.01875 0.01875 0.01875 0.01875 0.01875 0.01875 0.0135 0.0135 0.0135 0.0135 0.0135 0.0135 0.0135 0.0135 0.0135 0.0135 0.0135 0.0135 0.01875 0.01875 0.01875 0.01875 0.01875 0.01875 0.01875 0.01875 0.01875 0.01875 0.01875 0.01875 0.0135 0.0135 0.0135 0.0135 0.0135 0.0135 0.0135 0.0135 0.0135 0.0135 0.0135 0.0135 0.01875 0.01875 0.01875 0.01875 0.01875 0.01875 0.01875 0.01875 0.01875 0.01875 0.01875 0.01875 0.0135 0.0135 0.0135 0.0135 0.0135 0.0135 0.0135 0.0135 0.0135 0.0135 0.0135 0.0135 0.01875 0.01875 0.01875 0.01875 0.01875 0.01875 0.01875 0.01875 0.01875 0.01875 0.01875 0.01875 0.0135 0.0135 0.0135 0.0135 0.0135 0.0135 0.0135 0.0135 0.0135 0.0135 0.0135 0.0135 0.01875 0.01875 0.01875 0.01875 0.01875 0.01875 0.01875 0.01875 0.01875 0.01875 0.01875 0.01875 0.0135 0.0135 0.0135 0.0135 0.0135 0.0135 0.0135 0.0135 0.0135 0.0135 0.0135 0.0135 0.01875 0.01875 0.01875 0.01875 0.01875 0.01875 0.01875 0.01875 0.01875 0.01875 0.01875 0.01875 0.0135 0.0135 0.0135 0.0135 0.0135 0.0135 0.0135 0.0135 0.0135 0.0135 0.0135 0.0135 0.01875 0.01875 0.01875 0.01875 0.01875 0.01875 0.01875 0.01875 0.01875 0.01875 0.01875 0.01875 0.0135 0.0135 0.0135 0.0135 0.0135 0.0135 0.0135 0.0135 0.0135 0.0135 0.0135 0.0135 0.01875 0.01875 0.01875 0.01875 0.01875 0.01875 0.01875 0.01875 0.01875 0.01875 0.01875 0.01875 0.0135 0.0135 0.0135 0.0135 0.0135 0.0135 0.0135 0.0135 0.0135 0.0135 0.0135 0.0135 0.01875 0.01875 0.01875 0.01875 0.01875 0.01875 0.01875 0.01875 0.01875 0.01875 0.01875 0.01875 0.0135 0.0135 0.0135 0.0135 0.0135 0.0135 0.0135 0.0135 0.0135 0.0135 0.0135 0.0135 0.01875 0.01875 0.01875 0.01875 0.01875 0.01875 0.01875 0.01875 0.01875 0.01875 0.01875 0.01875 0.0135 0.0135 0.0135 0.0135 0.0135 0.0135 0.0135 0.0135 0.0135 0.0135 0.0135 0.0135 0.01875 0.01875 0.01875 0.01875 0.01875 0.01875 0.01875 0.01875 0.01875 0.01875 0.01875 0.01875 0.0135 0.0135 0.0135 0.0135 0.0135 0.0135 0.0135 0.0135 0.0135 0.0135 0.0135 0.0135 0.01875 0.01875 0.01875 0.01875 0.01875 0.01875 0.01875 0.01875 0.01875 0.01875 0.01875 0.01875 0.0135 0.0135 0.0135 0.0135 0.0135 0.0135 0.0135 0.0135 0.0135 0.0135 0.0135 0.0135 0.01875 0.01875 0.01875 0.01875 0.01875 0.01875 0.01875 0.01875 0.01875 0.01875 0.01875 0.01875 0.0135 0.0135 0.0135 0.0135 0.0135 0.0135 0.0135 0.0135 0.0135 0.0135 0.0135 0.0135 0.01875 0.01875 0.01875 0.01875 0.01875 0.01875 0.01875 0.01875 0.01875 0.01875 0.01875 0.01875 0.0135 0.0135 0.0135 0.0135 0.0135 0.0135 0.0135 0.0135 0.0135 0.0135 0.0135 0.0135 0.01875 0.01875 0.01875 0.01875 0.01875 0.01875 0.01875 0.01875 0.01875 0.01875 0.01875 0.01875 0.0135 0.0135 0.0135 0.0135 0.0135 0.0135 0.0135 0.0135 0.0135 0.0135 0.0135 0.0135 0.01875 0.01875 0.01875 0.01875 0.01875 0.01875 0.01875 0.01875 0.01875 0.01875 0.01875 0.01875 0.0135 0.0135 0.0135 0.0135 0.0135 0.0135 0.0135 0.0135 0.0135 0.0135 0.0135 0.0135 0.01875 0.01875 0.01875 0.01875 0.01875 0.01875 0.01875 0.01875 0.01875 0.01875 0.01875 0.01875 0.0135 0.0135 0.0135 0.0135 0.0135 0.0135 0.0135 0.0135 0.0135 0.0135 0.0135 0.0135 0.01875 0.01875 0.01875 0.01875 0.01875 0.01875 0.01875 0.01875 0.01875 0.01875 0.01875 0.01875 0.0135 0.0135 0.0135 0.0135 0.0135 0.0135 0.0135 0.0135 0.0135 0.0135 0.0135 0.0135 0.01875 0.01875 0.01875 0.01875 0.01875 0.01875 0.01875 0.01875 0.01875 0.01875 0.01875 0.01875 0.0135 0.0135 0.0135 0.0135 0.0135 0.0135 0.0135 0.0135 0.0135 0.0135 0.0135 0.0135 0.01875 0.01875 0.01875 0.01875 0.01875 0.01875 0.01875 0.01875 0.01875 0.01875 0.01875 0.01875 0.0135 0.0135 0.0135 0.0135 0.0135 0.0135 0.0135 0.0135 0.0135 0.0135 0.0135 0.0135 0.01875 0.01875 0.01875 0.01875 0.01875 0.01875 0.01875 0.01875 0.01875 0.01875 0.01875 0.01875 0.0135 0.0135 0.0135 0.0135 0.0135 0.0135 0.0135 0.0135 0.0135 0.0135 0.0135 0.0135 0.01875 0.01875 0.01875 0.01875 0.01875 0.01875 0.01875 0.01875 0.01875 0.01875 0.01875 0.01875 0.0135 0.0135 0.0135 0.0135 0.0135 0.0135 0.0135 0.0135 0.0135 0.0135 0.0135 0.0135 0.01875 0.01875 0.01875 0.01875 0.01875 0.01875 0.01875 0.01875 0.01875 0.01875 0.01875 0.01875 0.0135 0.0135 0.0135 0.0135 0.0135 0.0135 0.0135 0.0135 0.0135 0.0135 0.0135 0.0135 0.01875 0.01875 0.01875 0.01875 0.01875 0.01875 0.01875 0.01875 0.01875 0.01875 0.01875 0.01875 0.0135 0.0135 0.0135 0.0135 0.0135 0.0135 0.0135 0.0135 0.0135 0.0135 0.0135 0.0135 0.01875 0.01875 0.01875 0.01875 0.01875 0.01875 0.01875 0.01875 0.01875 0.01875 0.01875 0.01875 0.0135 0.0135 0.0135 0.0135 0.0135 0.0135 0.0135 0.0135 0.0135 0.0135 0.0135 0.0135 0.01875 0.01875 0.01875 0.01875 0.01875 0.01875 0.01875 0.01875 0.01875 0.01875 0.01875 0.01875 0.0135 0.0135 0.0135 0.0135 0.0135 0.0135 0.0135 0.0135 0.0135 0.0135 0.0135 0.0135 0.01875 0.01875 0.01875 0.01875 0.01875 0.01875 0.01875 0.01875 0.01875 0.01875 0.01875 0.01875 0.0135 0.0135 0.0135 0.0135 0.0135 0.0135 0.0135 0.0135 0.0135 0.0135 0.0135 0.0135 0.01875 0.01875 0.01875 0.01875 0.01875 0.01875 0.01875 0.01875 0.01875 0.01875 0.01875 0.01875 0.0135 0.0135 0.0135 0.0135 0.0135 0.0135 0.0135 0.0135 0.0135 0.0135 0.0135 0.0135 0.01875 0.01875 0.01875 0.01875 0.01875 0.01875 0.01875 0.01875 0.01875 0.01875 0.01875 0.01875 0.0135 0.0135 0.0135 0.0135 0.0135 0.0135 0.0135 0.0135 0.0135 0.0135 0.0135 0.0135 0.01875 0.01875 0.01875 0.01875 0.01875 0.01875 0.01875 0.01875 0.01875 0.01875 0.01875 0.01875 0.0135 0.0135 0.0135 0.0135 0.0135 0.0135 0.0135 0.0135 0.0135 0.0135 0.0135 0.0135 0.01875 0.01875 0.01875 0.01875 0.01875 0.01875 0.01875 0.01875 0.01875 0.01875 0.01875 0.01875 0.0135 0.0135 0.0135 0.0135 0.0135 0.0135 0.0135 0.0135 0.0135 0.0135 0.0135 0.0135 0.01875 0.01875 0.01875 0.01875 0.01875 0.01875 0.01875 0.01875 0.01875 0.01875 0.01875 0.01875 0.0135 0.0135 0.0135 0.0135 0.0135 0.0135 0.0135 0.0135 0.0135 0.0135 0.0135 0.01875 0.01875 0.01875 0.01875 0.01875 0.01875 0.01875 0.01875 0.01875 0.01875 0.01875 0.01875 0.0135 0.0135 0.0135 0.0135 0.0135 0.0135 0.0135 0.0135 0.0135 0.0135 0.0135 0.054 0.054 0.054 0.054 0.054 0.054 0.054 0.054 0.054 0.054 0.054 0.054 0.054 0.054 0.054 0.054 0.054 0.054 0.054 0.054 0.054 0.054 0.054 0.054 0.054 0.054 0.054 0.054 0.054 0.054 0.054 0.054 0.054 0.054 0.054 0.054 0.054 0.054 0.054 0.054 0.054 0.054 0.054 0.054 0.054 0.054 0.054 0.054 0.054 0.054 0.054 0.054 0.054 0.054 0.054 0.054 0.054 0.054 0.054 0.054 0.054 0.054 0.054 0.054 0.054 0.054 0.054 0.054 0.054 0.054 0.054 0.054 0.054 0.054 0.054 0.054 0.054 0.054 0.054 0.054 0.054 0.054 0.054 0.054 0.054 0.054 0.054 0.054 0.054 0.054 0.054 0.054 0.054 0.054 0.054 0.054 0.054 0.054 0.054 0.054 0.054 0.054 0.054 0.054 0.054 0.054 0.054 0.054 0.054 0.054 0.054 0.054 0.054 0.054 0.054 0.054 0.054 0.054 0.054 0.054 0.054 0.054 0.054 0.054 0.054 0.054 0.054 0.054 0.054 0.054 0.054 0.054 0.054 0.054 0.054 0.054 0.054 0.054 0.054 0.054 0.054 0.054 0.054 0.054 0.054 0.054 0.054 0.054 0.054 0.054 0.054 0.054 0.054 0.054 0.054 0.054 0.054 0.054 0.054 0.054 0.054 0.054 0.054 0.054 0.054 0.054 0.054 0.054 0.054 0.054 0.054 0.0135 0.0135 0.0135 0.0135 0.0135 0.0135 0.0135 0.0135 0.0135 0.0135 0.0135 0.0135 0.0135 0.0135 0.0135 0.0135 0.0135 0.0135 0.0135 0.0135 0.0135 0.0135 0.0135 0.0135 0.0135 0.0135 0.0135 0.01875 0.01875 0.01875 0.01875 0.01875 0.01875 0.01875 0.01875 0.01875 0.01875 0.0135 0.0135 0.0135 0.0135 0.0135 0.0135 0.0135 0.0135 0.0135 0.0135 0.0135 0.0135 0.0135 0.0135 0.0135 0.0135 0.0135 0.0135 0.0135 0.0135 0.0135 0.0135 0.0135 0.0135 0.0135 0.0135 0.0135 0.0135 0.0135 0.0135 0.0135 0.0135 0.0135 0.0135 0.0135 0.0135 0.01875 0.01875 0.01875 0.01875 0.01875 0.01875 0.01875 0.01875 0.01875 0.01875 0.0135 0.0135 0.0135 0.0135 0.0135 0.0135 0.0135 0.0135 0.0135 0.0135 0.0135 0.0135 0.0135 0.0135 0.0135 0.0135 0.0135 0.0135 0.0135 0.0135 0.0135 0.0135 0.0135 0.0135 0.01875 0.01875 0.01875 0.01875 0.01875 0.01875 0.01875 0.01875 0.01875 0.01875 0.0135 0.0135 0.0135 0.0135 0.0135 0.0135 0.0135 0.0135 0.0135 0.0135 0.0135 0.0135 0.0135 0.0135 0.0135 0.0135 0.0135 0.0135 0.0135 0.0135 0.0135 0.0135 0.0135 0.0135 0.0135 0.0135 0.0135 0.0135 0.0135 0.0135 0.0135 0.0135 0.0135 0.01875 0.01875 0.01875 0.01875 0.01875 0.01875 0.01875 0.01875 0.01875 0.0135 0.0135 0.0135 0.0135 0.0135 0.0135 0.0135 0.0135 0.0135 0.0135 0.0135 0.0135 0.0135 0.0135 0.0135 0.0135 0.0135 0.0135 0.0135 0.0135 0.0135 0.0135 0.01875 0.01875 0.01875 0.01875 0.01875 0.01875 0.01875 0.01875 0.01875 0.01875 0.0135 0.0135 0.0135 0.0135 0.0135 0.0135 0.0135 0.0135 0.0135 0.0135 0.0135 0.0135 0.0135 0.0135 0.0135 0.0135 0.0135 0.0135 0.0135 0.01875 0.01875 0.01875 0.01875 0.01875 0.01875 0.01875 0.01875 0.01875 0.0135 0.0135 0.0135 0.0135 0.0135 0.0135 0.0135 0.0135 0.0135 0.0135 0.0135 0.0135 0.0135 0.0135 0.01875 0.01875 0.01875 0.01875 0.01875 0.01875 0.01875 0.01875 0.01875 0.01875 0.0135 0.0135 0.0135 0.0135 0.0135 0.0135 0.0135 0.0135 0.0135 0.0135 0.0135 0.0135 0.0135 0.0135 0.0135 0.0135 0.0135 0.0135 0.0135 0.0135 0.01875 0.01875 0.01875 0.01875 0.01875 0.01875 0.01875 0.01875 0.01875 0.01875 0.0135 0.0135