<?xml version="1.0"?><VTKFile type="PolyData" version="0.1" byte_order="LittleEndian">
<PolyData>
<Piece NumberOfLines="25272" NumberOfPoints="25273">
<CellData doubles=" CellData">
<DataArray type="Float32" Name="radius" NumberOfComponents="1" format="ascii" >
0.05275 0.05275 0.05275 0.05275 0.05275 0.05275 0.05275 0.05275 0.05275 0.05275 0.05275 0.05275 0.05275 0.05275 0.05275 0.05275 0.05275 0.05275 0.05275 0.05275 0.05275 0.05275 0.05275 0.05275 0.05275 0.05275 0.05275 0.05275 0.05275 0.05275 0.05275 0.05275 0.05275 0.05275 0.05275 0.05275 0.05275 0.05275 0.05275 0.05275 0.05275 0.05275 0.05275 0.05275 0.05275 0.05275 0.05275 0.05275 0.05275 0.05275 0.05275 0.05275 0.05275 0.05275 0.05275 0.05275 0.05275 0.05275 0.05275 0.05275 0.05275 0.05275 0.05275 0.05275 0.05275 0.05275 0.05275 0.05275 0.05275 0.05275 0.05275 0.05275 0.05275 0.05275 0.05275 0.05275 0.05275 0.05275 0.05275 0.05275 0.05275 0.05275 0.05275 0.05275 0.05275 0.05275 0.05275 0.05275 0.05275 0.05275 0.05275 0.05275 0.05275 0.05275 0.05275 0.05275 0.05275 0.05275 0.05275 0.05275 0.05275 0.05275 0.05275 0.05275 0.05275 0.05275 0.05275 0.05275 0.05275 0.05275 0.05275 0.05275 0.05275 0.05275 0.05275 0.05275 0.05275 0.05275 0.05275 0.05275 0.05275 0.05275 0.05275 0.05275 0.05275 0.05275 0.05275 0.05275 0.05275 0.05275 0.05275 0.05275 0.05275 0.05275 0.05275 0.05275 0.05275 0.05275 0.05275 0.05275 0.05275 0.05275 0.05275 0.05275 0.05275 0.05275 0.05275 0.05275 0.05275 0.05275 0.05275 0.05275 0.05275 0.05275 0.05275 0.05275 0.05275 0.05275 0.05275 0.05275 0.05275 0.05275 0.05275 0.05275 0.05275 0.05275 0.05275 0.05275 0.05275 0.05275 0.05275 0.05275 0.05275 0.05275 0.05275 0.05275 0.05275 0.05275 0.05275 0.01125 0.01125 0.01125 0.01125 0.01125 0.01125 0.01125 0.01125 0.01125 0.01125 0.01125 0.01125 0.01125 0.01125 0.01125 0.01125 0.01125 0.01125 0.01125 0.01125 0.01125 0.01125 0.01125 0.01125 0.01125 0.01125 0.01125 0.01125 0.01125 0.01125 0.01125 0.01125 0.01125 0.01125 0.01125 0.01125 0.01125 0.01125 0.01125 0.01125 0.01125 0.01125 0.01125 0.01125 0.01125 0.01125 0.01125 0.01125 0.015 0.015 0.015 0.015 0.015 0.015 0.015 0.015 0.015 0.015 0.015 0.015 0.01125 0.01125 0.01125 0.01125 0.01125 0.01125 0.01125 0.01125 0.01125 0.01125 0.01125 0.01125 0.01125 0.01125 0.01125 0.01125 0.01125 0.01125 0.01125 0.01125 0.01125 0.01125 0.01125 0.01125 0.01125 0.01125 0.01125 0.01125 0.01125 0.01125 0.01125 0.015 0.015 0.015 0.015 0.015 0.015 0.015 0.015 0.015 0.015 0.015 0.015 0.01125 0.01125 0.01125 0.01125 0.01125 0.01125 0.01125 0.01125 0.01125 0.01125 0.01125 0.01125 0.01125 0.01125 0.01125 0.01125 0.01125 0.01125 0.01125 0.01125 0.01125 0.01125 0.01125 0.01125 0.01125 0.01125 0.01125 0.01125 0.01125 0.01125 0.01125 0.01125 0.01125 0.01125 0.01125 0.01125 0.01125 0.01125 0.01125 0.01125 0.01125 0.01125 0.01125 0.01125 0.01125 0.01125 0.01125 0.01125 0.01125 0.01125 0.01125 0.01125 0.01125 0.01125 0.01125 0.01125 0.01125 0.01125 0.01125 0.01125 0.01125 0.01125 0.01125 0.01125 0.01125 0.01125 0.01125 0.01125 0.01125 0.01125 0.015 0.015 0.015 0.015 0.015 0.015 0.015 0.015 0.015 0.015 0.01125 0.01125 0.01125 0.01125 0.01125 0.01125 0.01125 0.01125 0.01125 0.01125 0.01125 0.01125 0.01125 0.01125 0.01125 0.01125 0.01125 0.01125 0.01125 0.01125 0.01125 0.01125 0.01125 0.01125 0.01125 0.01125 0.01125 0.015 0.015 0.015 0.015 0.015 0.015 0.015 0.015 0.015 0.01125 0.01125 0.01125 0.01125 0.01125 0.01125 0.01125 0.01125 0.01125 0.01125 0.01125 0.01125 0.01125 0.01125 0.01125 0.01125 0.01125 0.01125 0.01125 0.01125 0.01125 0.01125 0.015 0.015 0.015 0.015 0.015 0.015 0.015 0.015 0.01125 0.01125 0.01125 0.01125 0.01125 0.01125 0.01125 0.01125 0.01125 0.01125 0.01125 0.01125 0.01125 0.01125 0.015 0.015 0.015 0.015 0.015 0.015 0.015 0.015 0.01125 0.01125 0.01125 0.01125 0.01125 0.01125 0.01125 0.01125 0.01125 0.01125 0.01125 0.01125 0.01125 0.01125 0.01125 0.01125 0.01125 0.01125 0.01125 0.01125 0.015 0.015 0.015 0.015 0.015 0.015 0.015 0.01125 0.01125 0.01125 0.01125 0.01125 0.01125 0.01125 0.01125 0.01125 0.01125 0.01125 0.01125 0.015 0.015 0.015 0.015 0.015 0.015 0.015 0.01125 0.01125 0.01125 0.01125 0.01125 0.01125 0.01125 0.01125 0.01125 0.01125 0.01125 0.01125 0.015 0.015 0.015 0.015 0.015 0.015 0.015 0.01125 0.01125 0.01125 0.01125 0.01125 0.01125 0.01125 0.01125 0.01125 0.01125 0.01125 0.01125 0.015 0.015 0.015 0.015 0.015 0.015 0.015 0.01125 0.01125 0.01125 0.01125 0.01125 0.01125 0.01125 0.01125 0.01125 0.01125 0.01125 0.01125 0.01125 0.01125 0.01125 0.01125 0.01125 0.01125 0.01125 0.01125 0.01125 0.015 0.015 0.015 0.015 0.015 0.015 0.015 0.01125 0.01125 0.01125 0.01125 0.01125 0.01125 0.01125 0.01125 0.01125 0.01125 0.01125 0.01125 0.01125 0.01125 0.01125 0.015 0.015 0.015 0.015 0.015 0.015 0.015 0.01125 0.01125 0.01125 0.01125 0.01125 0.01125 0.01125 0.01125 0.01125 0.01125 0.01125 0.01125 0.015 0.015 0.015 0.015 0.015 0.015 0.015 0.01125 0.01125 0.01125 0.01125 0.01125 0.01125 0.01125 0.01125 0.01125 0.01125 0.01125 0.01125 0.015 0.015 0.015 0.015 0.015 0.015 0.015 0.01125 0.01125 0.01125 0.01125 0.01125 0.01125 0.01125 0.01125 0.01125 0.01125 0.01125 0.01125 0.015 0.015 0.015 0.015 0.015 0.015 0.015 0.01125 0.01125 0.01125 0.01125 0.01125 0.01125 0.01125 0.01125 0.01125 0.01125 0.01125 0.01125 0.015 0.015 0.015 0.015 0.015 0.015 0.015 0.01125 0.01125 0.01125 0.01125 0.01125 0.01125 0.01125 0.01125 0.01125 0.01125 0.01125 0.01125 0.015 0.015 0.015 0.015 0.015 0.015 0.015 0.01125 0.01125 0.01125 0.01125 0.01125 0.01125 0.01125 0.01125 0.01125 0.01125 0.01125 0.01125 0.015 0.015 0.015 0.015 0.015 0.015 0.015 0.01125 0.01125 0.01125 0.01125 0.01125 0.01125 0.01125 0.01125 0.01125 0.01125 0.01125 0.01125 0.015 0.015 0.015 0.015 0.015 0.015 0.015 0.01125 0.01125 0.01125 0.01125 0.01125 0.01125 0.01125 0.01125 0.01125 0.01125 0.01125 0.01125 0.015 0.015 0.015 0.015 0.015 0.015 0.015 0.01125 0.01125 0.01125 0.01125 0.01125 0.01125 0.01125 0.01125 0.01125 0.01125 0.01125 0.01125 0.015 0.015 0.015 0.015 0.015 0.015 0.015 0.01125 0.01125 0.01125 0.01125 0.01125 0.01125 0.01125 0.01125 0.01125 0.01125 0.01125 0.01125 0.015 0.015 0.015 0.015 0.015 0.015 0.015 0.01125 0.01125 0.01125 0.01125 0.01125 0.01125 0.01125 0.01125 0.01125 0.01125 0.01125 0.01125 0.015 0.015 0.015 0.015 0.015 0.015 0.015 0.01125 0.01125 0.01125 0.01125 0.01125 0.01125 0.01125 0.01125 0.01125 0.01125 0.01125 0.01125 0.015 0.015 0.015 0.015 0.015 0.015 0.015 0.01125 0.01125 0.01125 0.01125 0.01125 0.01125 0.01125 0.01125 0.01125 0.01125 0.01125 0.01125 0.01125 0.01125 0.01125 0.015 0.015 0.015 0.015 0.015 0.015 0.015 0.01125 0.01125 0.01125 0.01125 0.01125 0.01125 0.01125 0.01125 0.01125 0.01125 0.01125 0.01125 0.015 0.015 0.015 0.015 0.015 0.015 0.015 0.01125 0.01125 0.01125 0.01125 0.01125 0.01125 0.01125 0.01125 0.01125 0.01125 0.01125 0.01125 0.015 0.015 0.015 0.015 0.015 0.015 0.015 0.01125 0.01125 0.01125 0.01125 0.01125 0.01125 0.01125 0.01125 0.01125 0.01125 0.01125 0.01125 0.015 0.015 0.015 0.015 0.015 0.015 0.015 0.01125 0.01125 0.01125 0.01125 0.01125 0.01125 0.01125 0.01125 0.01125 0.01125 0.01125 0.01125 0.015 0.015 0.015 0.015 0.015 0.015 0.015 0.01125 0.01125 0.01125 0.01125 0.01125 0.01125 0.01125 0.01125 0.01125 0.01125 0.01125 0.01125 0.015 0.015 0.015 0.015 0.015 0.015 0.015 0.01125 0.01125 0.01125 0.01125 0.01125 0.01125 0.01125 0.01125 0.01125 0.01125 0.01125 0.01125 0.015 0.015 0.015 0.015 0.015 0.015 0.015 0.01125 0.01125 0.01125 0.01125 0.01125 0.01125 0.01125 0.01125 0.01125 0.01125 0.01125 0.01125 0.015 0.015 0.015 0.015 0.015 0.015 0.015 0.01125 0.01125 0.01125 0.01125 0.01125 0.01125 0.01125 0.01125 0.01125 0.01125 0.01125 0.01125 0.015 0.015 0.015 0.015 0.015 0.015 0.015 0.01125 0.01125 0.01125 0.01125 0.01125 0.01125 0.01125 0.01125 0.01125 0.01125 0.01125 0.01125 0.015 0.015 0.015 0.015 0.015 0.015 0.015 0.01125 0.01125 0.01125 0.01125 0.01125 0.01125 0.01125 0.01125 0.01125 0.01125 0.01125 0.01125 0.015 0.015 0.015 0.015 0.015 0.015 0.015 0.01125 0.01125 0.01125 0.01125 0.01125 0.01125 0.01125 0.01125 0.01125 0.01125 0.01125 0.01125 0.015 0.015 0.015 0.015 0.015 0.015 0.015 0.01125 0.01125 0.01125 0.01125 0.01125 0.01125 0.01125 0.01125 0.01125 0.01125 0.01125 0.01125 0.015 0.015 0.015 0.015 0.015 0.015 0.015 0.01125 0.01125 0.01125 0.01125 0.01125 0.01125 0.01125 0.01125 0.01125 0.01125 0.01125 0.01125 0.015 0.015 0.015 0.015 0.015 0.015 0.015 0.01125 0.01125 0.01125 0.01125 0.01125 0.01125 0.01125 0.01125 0.01125 0.01125 0.01125 0.01125 0.015 0.015 0.015 0.015 0.015 0.015 0.015 0.01125 0.01125 0.01125 0.01125 0.01125 0.01125 0.01125 0.01125 0.01125 0.01125 0.01125 0.01125 0.015 0.015 0.015 0.015 0.015 0.015 0.015 0.01125 0.01125 0.01125 0.01125 0.01125 0.01125 0.01125 0.01125 0.01125 0.01125 0.01125 0.01125 0.015 0.015 0.015 0.015 0.015 0.015 0.015 0.01125 0.01125 0.01125 0.01125 0.01125 0.01125 0.01125 0.01125 0.01125 0.01125 0.01125 0.01125 0.015 0.015 0.015 0.015 0.015 0.015 0.015 0.01125 0.01125 0.01125 0.01125 0.01125 0.01125 0.01125 0.01125 0.01125 0.01125 0.01125 0.01125 0.015 0.015 0.015 0.015 0.015 0.015 0.015 0.01125 0.01125 0.01125 0.01125 0.01125 0.01125 0.01125 0.01125 0.01125 0.01125 0.01125 0.01125 0.015 0.015 0.015 0.015 0.015 0.015 0.015 0.01125 0.01125 0.01125 0.01125 0.01125 0.01125 0.01125 0.01125 0.01125 0.01125 0.01125 0.01125 0.015 0.015 0.015 0.015 0.015 0.015 0.015 0.01125 0.01125 0.01125 0.01125 0.01125 0.01125 0.01125 0.01125 0.01125 0.01125 0.01125 0.01125 0.015 0.015 0.015 0.015 0.015 0.015 0.015 0.01125 0.01125 0.01125 0.01125 0.01125 0.01125 0.01125 0.01125 0.01125 0.01125 0.01125 0.01125 0.015 0.015 0.015 0.015 0.015 0.015 0.015 0.01125 0.01125 0.01125 0.01125 0.01125 0.01125 0.01125 0.01125 0.01125 0.01125 0.01125 0.01125 0.015 0.015 0.015 0.015 0.015 0.015 0.015 0.01125 0.01125 0.01125 0.01125 0.01125 0.01125 0.01125 0.01125 0.01125 0.01125 0.01125 0.01125 0.015 0.015 0.015 0.015 0.015 0.015 0.015 0.01125 0.01125 0.01125 0.01125 0.01125 0.01125 0.01125 0.01125 0.01125 0.01125 0.01125 0.01125 0.015 0.015 0.015 0.015 0.015 0.015 0.015 0.01125 0.01125 0.01125 0.01125 0.01125 0.01125 0.01125 0.01125 0.01125 0.01125 0.01125 0.01125 0.015 0.015 0.015 0.015 0.015 0.015 0.015 0.01125 0.01125 0.01125 0.01125 0.01125 0.01125 0.01125 0.01125 0.01125 0.01125 0.01125 0.01125 0.015 0.015 0.015 0.015 0.015 0.015 0.015 0.01125 0.01125 0.01125 0.01125 0.01125 0.01125 0.01125 0.01125 0.01125 0.01125 0.01125 0.01125 0.015 0.015 0.015 0.015 0.015 0.015 0.015 0.01125 0.01125 0.01125 0.01125 0.01125 0.01125 0.01125 0.01125 0.01125 0.01125 0.01125 0.01125 0.015 0.015 0.015 0.015 0.015 0.015 0.015 0.01125 0.01125 0.01125 0.01125 0.01125 0.01125 0.01125 0.01125 0.01125 0.01125 0.01125 0.01125 0.015 0.015 0.015 0.015 0.015 0.015 0.015 0.01125 0.01125 0.01125 0.01125 0.01125 0.01125 0.01125 0.01125 0.01125 0.01125 0.01125 0.01125 0.015 0.015 0.015 0.015 0.015 0.015 0.015 0.01125 0.01125 0.01125 0.01125 0.01125 0.01125 0.01125 0.01125 0.01125 0.01125 0.01125 0.01125 0.015 0.015 0.015 0.015 0.015 0.015 0.015 0.01125 0.01125 0.01125 0.01125 0.01125 0.01125 0.01125 0.01125 0.01125 0.01125 0.01125 0.01125 0.015 0.015 0.015 0.015 0.015 0.015 0.015 0.01125 0.01125 0.01125 0.01125 0.01125 0.01125 0.01125 0.01125 0.01125 0.01125 0.01125 0.01125 0.015 0.015 0.015 0.015 0.015 0.015 0.015 0.01125 0.01125 0.01125 0.01125 0.01125 0.01125 0.01125 0.01125 0.01125 0.01125 0.01125 0.01125 0.015 0.015 0.015 0.015 0.015 0.015 0.015 0.01125 0.01125 0.01125 0.01125 0.01125 0.01125 0.01125 0.01125 0.01125 0.01125 0.01125 0.01125 0.015 0.015 0.015 0.015 0.015 0.015 0.015 0.01125 0.01125 0.01125 0.01125 0.01125 0.01125 0.01125 0.01125 0.01125 0.01125 0.01125 0.01125 0.015 0.015 0.015 0.015 0.015 0.015 0.015 0.01125 0.01125 0.01125 0.01125 0.01125 0.01125 0.01125 0.01125 0.01125 0.01125 0.01125 0.01125 0.015 0.015 0.015 0.015 0.015 0.015 0.015 0.01125 0.01125 0.01125 0.01125 0.01125 0.01125 0.01125 0.01125 0.01125 0.01125 0.01125 0.01125 0.015 0.015 0.015 0.015 0.015 0.015 0.015 0.01125 0.01125 0.01125 0.01125 0.01125 0.01125 0.01125 0.01125 0.01125 0.01125 0.01125 0.01125 0.015 0.015 0.015 0.015 0.015 0.015 0.015 0.01125 0.01125 0.01125 0.01125 0.01125 0.01125 0.01125 0.01125 0.01125 0.01125 0.01125 0.01125 0.015 0.015 0.015 0.015 0.015 0.015 0.015 0.01125 0.01125 0.01125 0.01125 0.01125 0.01125 0.01125 0.01125 0.01125 0.01125 0.01125 0.01125 0.015 0.015 0.015 0.015 0.015 0.015 0.015 0.01125 0.01125 0.01125 0.01125 0.01125 0.01125 0.01125 0.01125 0.01125 0.01125 0.01125 0.01125 0.015 0.015 0.015 0.015 0.015 0.015 0.015 0.01125 0.01125 0.01125 0.01125 0.01125 0.01125 0.01125 0.01125 0.01125 0.01125 0.01125 0.01125 0.015 0.015 0.015 0.015 0.015 0.015 0.015 0.01125 0.01125 0.01125 0.01125 0.01125 0.01125 0.01125 0.01125 0.01125 0.01125 0.01125 0.01125 0.015 0.015 0.015 0.015 0.015 0.015 0.015 0.01125 0.01125 0.01125 0.01125 0.01125 0.01125 0.01125 0.01125 0.01125 0.01125 0.01125 0.01125 0.015 0.015 0.015 0.015 0.015 0.015 0.015 0.01125 0.01125 0.01125 0.01125 0.01125 0.01125 0.01125 0.01125 0.01125 0.01125 0.01125 0.01125 0.015 0.015 0.015 0.015 0.015 0.015 0.015 0.01125 0.01125 0.01125 0.01125 0.01125 0.01125 0.01125 0.01125 0.01125 0.01125 0.01125 0.01125 0.015 0.015 0.015 0.015 0.015 0.015 0.015 0.01125 0.01125 0.01125 0.01125 0.01125 0.01125 0.01125 0.01125 0.01125 0.01125 0.01125 0.01125 0.015 0.015 0.015 0.015 0.015 0.015 0.015 0.01125 0.01125 0.01125 0.01125 0.01125 0.01125 0.01125 0.01125 0.01125 0.01125 0.01125 0.01125 0.015 0.015 0.015 0.015 0.015 0.015 0.015 0.01125 0.01125 0.01125 0.01125 0.01125 0.01125 0.01125 0.01125 0.01125 0.01125 0.01125 0.01125 0.015 0.015 0.015 0.015 0.015 0.015 0.015 0.01125 0.01125 0.01125 0.01125 0.01125 0.01125 0.01125 0.01125 0.01125 0.01125 0.01125 0.01125 0.015 0.015 0.015 0.015 0.015 0.015 0.015 0.01125 0.01125 0.01125 0.01125 0.01125 0.01125 0.01125 0.01125 0.01125 0.01125 0.01125 0.01125 0.015 0.015 0.015 0.015 0.015 0.015 0.015 0.01125 0.01125 0.01125 0.01125 0.01125 0.01125 0.01125 0.01125 0.01125 0.01125 0.01125 0.01125 0.015 0.015 0.015 0.015 0.015 0.015 0.015 0.01125 0.01125 0.01125 0.01125 0.01125 0.01125 0.01125 0.01125 0.01125 0.01125 0.01125 0.01125 0.015 0.015 0.015 0.015 0.015 0.015 0.015 0.01125 0.01125 0.01125 0.01125 0.01125 0.01125 0.01125 0.01125 0.01125 0.01125 0.01125 0.01125 0.015 0.015 0.015 0.015 0.015 0.015 0.015 0.01125 0.01125 0.01125 0.01125 0.01125 0.01125 0.01125 0.01125 0.01125 0.01125 0.01125 0.01125 0.015 0.015 0.015 0.015 0.015 0.015 0.015 0.01125 0.01125 0.01125 0.01125 0.01125 0.01125 0.01125 0.01125 0.01125 0.01125 0.01125 0.01125 0.015 0.015 0.015 0.015 0.015 0.015 0.015 0.01125 0.01125 0.01125 0.01125 0.01125 0.01125 0.01125 0.01125 0.01125 0.01125 0.01125 0.01125 0.015 0.015 0.015 0.015 0.015 0.015 0.015 0.01125 0.01125 0.01125 0.01125 0.01125 0.01125 0.01125 0.01125 0.01125 0.01125 0.01125 0.01125 0.015 0.015 0.015 0.015 0.015 0.015 0.015 0.01125 0.01125 0.01125 0.01125 0.01125 0.01125 0.01125 0.01125 0.01125 0.01125 0.01125 0.01125 0.015 0.015 0.015 0.015 0.015 0.015 0.015 0.01125 0.01125 0.01125 0.01125 0.01125 0.01125 0.01125 0.01125 0.01125 0.01125 0.01125 0.01125 0.015 0.015 0.015 0.015 0.015 0.015 0.015 0.01125 0.01125 0.01125 0.01125 0.01125 0.01125 0.01125 0.01125 0.01125 0.01125 0.01125 0.01125 0.015 0.015 0.015 0.015 0.015 0.015 0.015 0.01125 0.01125 0.01125 0.01125 0.01125 0.01125 0.01125 0.01125 0.01125 0.01125 0.01125 0.01125 0.015 0.015 0.015 0.015 0.015 0.015 0.015 0.01125 0.01125 0.01125 0.01125 0.01125 0.01125 0.01125 0.01125 0.01125 0.01125 0.01125 0.01125 0.015 0.015 0.015 0.015 0.015 0.015 0.015 0.01125 0.01125 0.01125 0.01125 0.01125 0.01125 0.01125 0.01125 0.01125 0.01125 0.01125 0.01125 0.015 0.015 0.015 0.015 0.015 0.015 0.015 0.01125 0.01125 0.01125 0.01125 0.01125 0.01125 0.01125 0.01125 0.01125 0.01125 0.01125 0.01125 0.015 0.015 0.015 0.015 0.015 0.015 0.015 0.01125 0.01125 0.01125 0.01125 0.01125 0.01125 0.01125 0.01125 0.01125 0.01125 0.01125 0.01125 0.015 0.015 0.015 0.015 0.015 0.015 0.015 0.01125 0.01125 0.01125 0.01125 0.01125 0.01125 0.01125 0.01125 0.01125 0.01125 0.01125 0.01125 0.015 0.015 0.015 0.015 0.015 0.015 0.015 0.01125 0.01125 0.01125 0.01125 0.01125 0.01125 0.01125 0.01125 0.01125 0.01125 0.01125 0.01125 0.015 0.015 0.015 0.015 0.015 0.015 0.015 0.01125 0.01125 0.01125 0.01125 0.01125 0.01125 0.01125 0.01125 0.01125 0.01125 0.01125 0.01125 0.015 0.015 0.015 0.015 0.015 0.015 0.015 0.01125 0.01125 0.01125 0.01125 0.01125 0.01125 0.01125 0.01125 0.01125 0.01125 0.01125 0.01125 0.015 0.015 0.015 0.015 0.015 0.015 0.015 0.01125 0.01125 0.01125 0.01125 0.01125 0.01125 0.01125 0.01125 0.01125 0.01125 0.01125 0.01125 0.015 0.015 0.015 0.015 0.015 0.015 0.015 0.01125 0.01125 0.01125 0.01125 0.01125 0.01125 0.01125 0.01125 0.01125 0.01125 0.01125 0.01125 0.015 0.015 0.015 0.015 0.015 0.015 0.015 0.01125 0.01125 0.01125 0.01125 0.01125 0.01125 0.01125 0.01125 0.01125 0.01125 0.01125 0.01125 0.015 0.015 0.015 0.015 0.015 0.015 0.015 0.01125 0.01125 0.01125 0.01125 0.01125 0.01125 0.01125 0.01125 0.01125 0.01125 0.01125 0.01125 0.015 0.015 0.015 0.015 0.015 0.015 0.015 0.01125 0.01125 0.01125 0.01125 0.01125 0.01125 0.01125 0.01125 0.01125 0.01125 0.01125 0.01125 0.015 0.015 0.015 0.015 0.015 0.015 0.015 0.01125 0.01125 0.01125 0.01125 0.01125 0.01125 0.01125 0.01125 0.01125 0.01125 0.01125 0.01125 0.015 0.015 0.015 0.015 0.015 0.015 0.015 0.01125 0.01125 0.01125 0.01125 0.01125 0.01125 0.01125 0.01125 0.01125 0.01125 0.01125 0.01125 0.015 0.015 0.015 0.015 0.015 0.015 0.015 0.01125 0.01125 0.01125 0.01125 0.01125 0.01125 0.01125 0.01125 0.01125 0.01125 0.01125 0.01125 0.015 0.015 0.015 0.015 0.015 0.015 0.015 0.01125 0.01125 0.01125 0.01125 0.01125 0.01125 0.01125 0.01125 0.01125 0.01125 0.01125 0.01125 0.015 0.015 0.015 0.015 0.015 0.015 0.015 0.01125 0.01125 0.01125 0.01125 0.01125 0.01125 0.01125 0.01125 0.01125 0.01125 0.01125 0.01125 0.015 0.015 0.015 0.015 0.015 0.015 0.015 0.01125 0.01125 0.01125 0.01125 0.01125 0.01125 0.01125 0.01125 0.01125 0.01125 0.01125 0.01125 0.015 0.015 0.015 0.015 0.015 0.015 0.015 0.01125 0.01125 0.01125 0.01125 0.01125 0.01125 0.01125 0.01125 0.01125 0.01125 0.01125 0.01125 0.015 0.015 0.015 0.015 0.015 0.015 0.015 0.01125 0.01125 0.01125 0.01125 0.01125 0.01125 0.01125 0.01125 0.01125 0.01125 0.01125 0.01125 0.015 0.015 0.015 0.015 0.015 0.015 0.015 0.01125 0.01125 0.01125 0.01125 0.01125 0.01125 0.01125 0.01125 0.01125 0.01125 0.01125 0.01125 0.015 0.015 0.015 0.015 0.015 0.015 0.015 0.01125 0.01125 0.01125 0.01125 0.01125 0.01125 0.01125 0.01125 0.01125 0.01125 0.01125 0.01125 0.015 0.015 0.015 0.015 0.015 0.015 0.015 0.01125 0.01125 0.01125 0.01125 0.01125 0.01125 0.01125 0.01125 0.01125 0.01125 0.01125 0.01125 0.015 0.015 0.015 0.015 0.015 0.015 0.015 0.01125 0.01125 0.01125 0.01125 0.01125 0.01125 0.01125 0.01125 0.01125 0.01125 0.01125 0.01125 0.015 0.015 0.015 0.015 0.015 0.015 0.015 0.01125 0.01125 0.01125 0.01125 0.01125 0.01125 0.01125 0.01125 0.01125 0.01125 0.01125 0.01125 0.015 0.015 0.015 0.015 0.015 0.015 0.015 0.01125 0.01125 0.01125 0.01125 0.01125 0.01125 0.01125 0.01125 0.01125 0.01125 0.01125 0.01125 0.015 0.015 0.015 0.015 0.015 0.015 0.015 0.01125 0.01125 0.01125 0.01125 0.01125 0.01125 0.01125 0.01125 0.01125 0.01125 0.01125 0.01125 0.015 0.015 0.015 0.015 0.015 0.015 0.015 0.01125 0.01125 0.01125 0.01125 0.01125 0.01125 0.01125 0.01125 0.01125 0.01125 0.01125 0.01125 0.015 0.015 0.015 0.015 0.015 0.015 0.015 0.01125 0.01125 0.01125 0.01125 0.01125 0.01125 0.01125 0.01125 0.01125 0.01125 0.01125 0.01125 0.015 0.015 0.015 0.015 0.015 0.015 0.015 0.01125 0.01125 0.01125 0.01125 0.01125 0.01125 0.01125 0.01125 0.01125 0.01125 0.01125 0.01125 0.015 0.015 0.015 0.015 0.015 0.015 0.015 0.01125 0.01125 0.01125 0.01125 0.01125 0.01125 0.01125 0.01125 0.01125 0.01125 0.01125 0.01125 0.015 0.015 0.015 0.015 0.015 0.015 0.015 0.01125 0.01125 0.01125 0.01125 0.01125 0.01125 0.01125 0.01125 0.01125 0.01125 0.01125 0.01125 0.015 0.015 0.015 0.015 0.015 0.015 0.015 0.01125 0.01125 0.01125 0.01125 0.01125 0.01125 0.01125 0.01125 0.01125 0.01125 0.01125 0.01125 0.015 0.015 0.015 0.015 0.015 0.015 0.015 0.01125 0.01125 0.01125 0.01125 0.01125 0.01125 0.01125 0.01125 0.01125 0.01125 0.01125 0.01125 0.015 0.015 0.015 0.015 0.015 0.015 0.015 0.01125 0.01125 0.01125 0.01125 0.01125 0.01125 0.01125 0.01125 0.01125 0.01125 0.01125 0.01125 0.015 0.015 0.015 0.015 0.015 0.015 0.015 0.01125 0.01125 0.01125 0.01125 0.01125 0.01125 0.01125 0.01125 0.01125 0.01125 0.01125 0.01125 0.015 0.015 0.015 0.015 0.015 0.015 0.015 0.01125 0.01125 0.01125 0.01125 0.01125 0.01125 0.01125 0.01125 0.01125 0.01125 0.01125 0.01125 0.015 0.015 0.015 0.015 0.015 0.015 0.015 0.01125 0.01125 0.01125 0.01125 0.01125 0.01125 0.01125 0.01125 0.01125 0.01125 0.01125 0.015 0.015 0.015 0.015 0.015 0.015 0.015 0.01125 0.01125 0.01125 0.01125 0.01125 0.01125 0.01125 0.01125 0.01125 0.01125 0.01125 0.015 0.015 0.015 0.015 0.015 0.015 0.015 0.01125 0.01125 0.01125 0.01125 0.01125 0.01125 0.01125 0.01125 0.01125 0.01125 0.015 0.015 0.015 0.015 0.015 0.015 0.015 0.01125 0.01125 0.01125 0.01125 0.01125 0.01125 0.01125 0.01125 0.01125 0.05275 0.05275 0.05275 0.05275 0.05275 0.05275 0.05275 0.05275 0.05275 0.05275 0.05275 0.05275 0.05275 0.05275 0.05275 0.05275 0.05275 0.05275 0.05275 0.05275 0.05275 0.05275 0.05275 0.05275 0.05275 0.05275 0.05275 0.05275 0.05275 0.05275 0.05275 0.05275 0.05275 0.05275 0.05275 0.05275 0.05275 0.05275 0.05275 0.05275 0.05275 0.05275 0.05275 0.05275 0.05275 0.05275 0.05275 0.05275 0.05275 0.05275 0.05275 0.05275 0.05275 0.05275 0.05275 0.05275 0.05275 0.05275 0.05275 0.05275 0.05275 0.05275 0.05275 0.05275 0.05275 0.05275 0.05275 0.05275 0.05275 0.05275 0.05275 0.05275 0.05275 0.05275 0.05275 0.05275 0.05275 0.05275 0.05275 0.05275 0.05275 0.05275 0.05275 0.05275 0.05275 0.05275 0.05275 0.05275 0.05275 0.05275 0.05275 0.05275 0.05275 0.05275 0.05275 0.05275 0.05275 0.05275 0.05275 0.05275 0.05275 0.05275 0.05275 0.05275 0.05275 0.05275 0.05275 0.05275 0.05275 0.05275 0.05275 0.05275 0.05275 0.05275 0.05275 0.05275 0.05275 0.05275 0.05275 0.05275 0.05275 0.05275 0.05275 0.05275 0.05275 0.05275 0.05275 0.05275 0.05275 0.05275 0.05275 0.05275 0.05275 0.05275 0.05275 0.05275 0.05275 0.05275 0.05275 0.05275 0.05275 0.05275 0.05275 0.05275 0.05275 0.05275 0.05275 0.05275 0.05275 0.05275 0.05275 0.05275 0.05275 0.05275 0.05275 0.05275 0.05275 0.05275 0.05275 0.05275 0.05275 0.05275 0.05275 0.05275 0.05275 0.05275 0.05275 0.05275 0.05275 0.05275 0.05275 0.05275 0.05275 0.05275 0.05275 0.05275 0.05275 0.05275 0.05275 0.05275 0.05275 0.05275 0.01125 0.01125 0.01125 0.01125 0.01125 0.01125 0.01125 0.01125 0.01125 0.01125 0.01125 0.01125 0.01125 0.01125 0.01125 0.01125 0.01125 0.01125 0.01125 0.01125 0.01125 0.01125 0.01125 0.01125 0.01125 0.01125 0.01125 0.01125 0.01125 0.01125 0.01125 0.01125 0.01125 0.01125 0.01125 0.01125 0.01125 0.01125 0.01125 0.01125 0.01125 0.01125 0.01125 0.01125 0.01125 0.01125 0.01125 0.01125 0.01125 0.01125 0.01125 0.015 0.015 0.015 0.015 0.015 0.015 0.015 0.015 0.015 0.015 0.015 0.015 0.01125 0.01125 0.01125 0.01125 0.01125 0.01125 0.01125 0.01125 0.01125 0.01125 0.01125 0.01125 0.01125 0.01125 0.01125 0.01125 0.01125 0.01125 0.01125 0.01125 0.01125 0.01125 0.01125 0.01125 0.01125 0.01125 0.01125 0.01125 0.01125 0.01125 0.01125 0.01125 0.01125 0.01125 0.015 0.015 0.015 0.015 0.015 0.015 0.015 0.015 0.015 0.015 0.015 0.015 0.01125 0.01125 0.01125 0.01125 0.01125 0.01125 0.01125 0.01125 0.01125 0.01125 0.01125 0.01125 0.01125 0.01125 0.01125 0.01125 0.01125 0.01125 0.01125 0.01125 0.01125 0.01125 0.01125 0.01125 0.01125 0.01125 0.01125 0.01125 0.01125 0.01125 0.01125 0.01125 0.01125 0.01125 0.01125 0.01125 0.01125 0.01125 0.01125 0.01125 0.01125 0.01125 0.01125 0.01125 0.01125 0.01125 0.01125 0.01125 0.01125 0.01125 0.01125 0.01125 0.01125 0.01125 0.01125 0.01125 0.01125 0.01125 0.01125 0.01125 0.01125 0.015 0.015 0.015 0.015 0.015 0.015 0.015 0.015 0.015 0.015 0.015 0.015 0.01125 0.01125 0.01125 0.01125 0.01125 0.01125 0.01125 0.01125 0.01125 0.01125 0.01125 0.01125 0.01125 0.01125 0.01125 0.01125 0.01125 0.01125 0.01125 0.01125 0.01125 0.01125 0.01125 0.01125 0.01125 0.01125 0.01125 0.01125 0.01125 0.01125 0.01125 0.01125 0.01125 0.01125 0.015 0.015 0.015 0.015 0.015 0.015 0.015 0.015 0.015 0.015 0.015 0.015 0.01125 0.01125 0.01125 0.01125 0.01125 0.01125 0.01125 0.01125 0.01125 0.01125 0.01125 0.01125 0.01125 0.01125 0.01125 0.01125 0.01125 0.01125 0.01125 0.01125 0.01125 0.01125 0.01125 0.01125 0.01125 0.01125 0.01125 0.01125 0.01125 0.01125 0.01125 0.01125 0.01125 0.01125 0.01125 0.01125 0.01125 0.01125 0.01125 0.01125 0.01125 0.01125 0.01125 0.01125 0.01125 0.01125 0.01125 0.01125 0.01125 0.01125 0.01125 0.01125 0.015 0.015 0.015 0.015 0.015 0.015 0.015 0.015 0.01125 0.01125 0.01125 0.01125 0.01125 0.01125 0.01125 0.01125 0.01125 0.01125 0.01125 0.01125 0.01125 0.01125 0.015 0.015 0.015 0.015 0.015 0.015 0.015 0.015 0.01125 0.01125 0.01125 0.01125 0.01125 0.01125 0.01125 0.01125 0.01125 0.01125 0.01125 0.01125 0.01125 0.01125 0.01125 0.01125 0.01125 0.01125 0.01125 0.01125 0.01125 0.01125 0.01125 0.01125 0.01125 0.01125 0.015 0.015 0.015 0.015 0.015 0.015 0.015 0.01125 0.01125 0.01125 0.01125 0.01125 0.01125 0.01125 0.01125 0.01125 0.01125 0.01125 0.01125 0.01125 0.01125 0.01125 0.015 0.015 0.015 0.015 0.015 0.015 0.015 0.01125 0.01125 0.01125 0.01125 0.01125 0.01125 0.01125 0.01125 0.01125 0.01125 0.01125 0.01125 0.01125 0.01125 0.01125 0.015 0.015 0.015 0.015 0.015 0.015 0.015 0.01125 0.01125 0.01125 0.01125 0.01125 0.01125 0.01125 0.01125 0.01125 0.01125 0.01125 0.01125 0.015 0.015 0.015 0.015 0.015 0.015 0.015 0.01125 0.01125 0.01125 0.01125 0.01125 0.01125 0.01125 0.01125 0.01125 0.01125 0.01125 0.01125 0.01125 0.01125 0.01125 0.015 0.015 0.015 0.015 0.015 0.015 0.015 0.01125 0.01125 0.01125 0.01125 0.01125 0.01125 0.01125 0.01125 0.01125 0.01125 0.01125 0.01125 0.015 0.015 0.015 0.015 0.015 0.015 0.015 0.01125 0.01125 0.01125 0.01125 0.01125 0.01125 0.01125 0.01125 0.01125 0.01125 0.01125 0.01125 0.015 0.015 0.015 0.015 0.015 0.015 0.015 0.01125 0.01125 0.01125 0.01125 0.01125 0.01125 0.01125 0.01125 0.01125 0.01125 0.01125 0.01125 0.015 0.015 0.015 0.015 0.015 0.015 0.015 0.01125 0.01125 0.01125 0.01125 0.01125 0.01125 0.01125 0.01125 0.01125 0.01125 0.01125 0.01125 0.015 0.015 0.015 0.015 0.015 0.015 0.015 0.01125 0.01125 0.01125 0.01125 0.01125 0.01125 0.01125 0.01125 0.01125 0.01125 0.01125 0.01125 0.015 0.015 0.015 0.015 0.015 0.015 0.015 0.01125 0.01125 0.01125 0.01125 0.01125 0.01125 0.01125 0.01125 0.01125 0.01125 0.01125 0.01125 0.015 0.015 0.015 0.015 0.015 0.015 0.015 0.01125 0.01125 0.01125 0.01125 0.01125 0.01125 0.01125 0.01125 0.01125 0.01125 0.01125 0.01125 0.015 0.015 0.015 0.015 0.015 0.015 0.015 0.01125 0.01125 0.01125 0.01125 0.01125 0.01125 0.01125 0.01125 0.01125 0.01125 0.01125 0.01125 0.015 0.015 0.015 0.015 0.015 0.015 0.015 0.01125 0.01125 0.01125 0.01125 0.01125 0.01125 0.01125 0.01125 0.01125 0.01125 0.01125 0.01125 0.015 0.015 0.015 0.015 0.015 0.015 0.015 0.01125 0.01125 0.01125 0.01125 0.01125 0.01125 0.01125 0.01125 0.01125 0.01125 0.01125 0.01125 0.015 0.015 0.015 0.015 0.015 0.015 0.015 0.01125 0.01125 0.01125 0.01125 0.01125 0.01125 0.01125 0.01125 0.01125 0.01125 0.01125 0.01125 0.015 0.015 0.015 0.015 0.015 0.015 0.015 0.01125 0.01125 0.01125 0.01125 0.01125 0.01125 0.01125 0.01125 0.01125 0.01125 0.01125 0.01125 0.015 0.015 0.015 0.015 0.015 0.015 0.015 0.01125 0.01125 0.01125 0.01125 0.01125 0.01125 0.01125 0.01125 0.01125 0.01125 0.01125 0.01125 0.015 0.015 0.015 0.015 0.015 0.015 0.015 0.01125 0.01125 0.01125 0.01125 0.01125 0.01125 0.01125 0.01125 0.01125 0.01125 0.01125 0.01125 0.015 0.015 0.015 0.015 0.015 0.015 0.015 0.01125 0.01125 0.01125 0.01125 0.01125 0.01125 0.01125 0.01125 0.01125 0.01125 0.01125 0.01125 0.015 0.015 0.015 0.015 0.015 0.015 0.015 0.01125 0.01125 0.01125 0.01125 0.01125 0.01125 0.01125 0.01125 0.01125 0.01125 0.01125 0.01125 0.015 0.015 0.015 0.015 0.015 0.015 0.015 0.01125 0.01125 0.01125 0.01125 0.01125 0.01125 0.01125 0.01125 0.01125 0.01125 0.01125 0.01125 0.015 0.015 0.015 0.015 0.015 0.015 0.015 0.01125 0.01125 0.01125 0.01125 0.01125 0.01125 0.01125 0.01125 0.01125 0.01125 0.01125 0.01125 0.015 0.015 0.015 0.015 0.015 0.015 0.015 0.01125 0.01125 0.01125 0.01125 0.01125 0.01125 0.01125 0.01125 0.01125 0.01125 0.01125 0.01125 0.015 0.015 0.015 0.015 0.015 0.015 0.015 0.01125 0.01125 0.01125 0.01125 0.01125 0.01125 0.01125 0.01125 0.01125 0.01125 0.01125 0.01125 0.015 0.015 0.015 0.015 0.015 0.015 0.015 0.01125 0.01125 0.01125 0.01125 0.01125 0.01125 0.01125 0.01125 0.01125 0.01125 0.01125 0.01125 0.015 0.015 0.015 0.015 0.015 0.015 0.015 0.01125 0.01125 0.01125 0.01125 0.01125 0.01125 0.01125 0.01125 0.01125 0.01125 0.01125 0.01125 0.015 0.015 0.015 0.015 0.015 0.015 0.015 0.01125 0.01125 0.01125 0.01125 0.01125 0.01125 0.01125 0.01125 0.01125 0.01125 0.01125 0.01125 0.015 0.015 0.015 0.015 0.015 0.015 0.015 0.01125 0.01125 0.01125 0.01125 0.01125 0.01125 0.01125 0.01125 0.01125 0.01125 0.01125 0.01125 0.015 0.015 0.015 0.015 0.015 0.015 0.015 0.01125 0.01125 0.01125 0.01125 0.01125 0.01125 0.01125 0.01125 0.01125 0.01125 0.01125 0.01125 0.015 0.015 0.015 0.015 0.015 0.015 0.015 0.01125 0.01125 0.01125 0.01125 0.01125 0.01125 0.01125 0.01125 0.01125 0.01125 0.01125 0.01125 0.015 0.015 0.015 0.015 0.015 0.015 0.015 0.01125 0.01125 0.01125 0.01125 0.01125 0.01125 0.01125 0.01125 0.01125 0.01125 0.01125 0.01125 0.015 0.015 0.015 0.015 0.015 0.015 0.015 0.01125 0.01125 0.01125 0.01125 0.01125 0.01125 0.01125 0.01125 0.01125 0.01125 0.01125 0.01125 0.015 0.015 0.015 0.015 0.015 0.015 0.015 0.01125 0.01125 0.01125 0.01125 0.01125 0.01125 0.01125 0.01125 0.01125 0.01125 0.01125 0.01125 0.015 0.015 0.015 0.015 0.015 0.015 0.015 0.01125 0.01125 0.01125 0.01125 0.01125 0.01125 0.01125 0.01125 0.01125 0.01125 0.01125 0.01125 0.015 0.015 0.015 0.015 0.015 0.015 0.015 0.01125 0.01125 0.01125 0.01125 0.01125 0.01125 0.01125 0.01125 0.01125 0.01125 0.01125 0.01125 0.