<?xml version="1.0"?><VTKFile type="PolyData" version="0.1" byte_order="LittleEndian">
<PolyData>
<Piece NumberOfLines="3253" NumberOfPoints="19573">
<PointData Scalars=" PointData">
<DataArray type="Float32" Name="time" NumberOfComponents="1" format="ascii" >
0 0.0129941 0.0854677 0.112873 0.185891 0.197353 0.270834 0.289411 0.363401 0.378607 0.453093 0.461744 0.536696 0.55166 0.627118 0.650373 0.726391 0.765471 0.842147 0.857498 0.934705 0.936641 1.01431 1.01322 1.10574 1.13997 1.21883 1.23051 1.3099 1.32722 1.4072 1.43841 1.51905 1.54524 1.62653 1.63513 1.71697 1.73354 1.81599 1.8255 1.90852 1.92256 2.00618 2.01781 2.10826 2.14282 2.2215 2.30702 2.3091 2.39518 2.41921 2.506 2.52901 2.61652 2.63659 2.72481 2.74218 2.8311 2.85408 2.94375 2.97607 3.06656 3.01491 3.17276 3.19171 3.28367 3.30972 3.4025 3.42129 3.51485 3.53424 3.6286 3.63334 3.72841 3.76492 3.86093 3.88629 3.98318 3.99119 4.08884 4.01368 4.20108 4.23959 4.33907 4.37841 4.47894 4.49789 4.59932 4.63282 4.73528 4.76345 4.86692 4.90432 5.00889 5.01762 5.13205 5.15463 5.26118 5.26402 5.37144 5.3857 5.49411 5.54083 5.64817 5.75874 5.76804 5.87961 5.9007 6.01338 6.02391 6.15116 6.16642 6.28138 6.29164 6.40768 6.44513 6.56251 6.56932 6.68781 6.70531 6.82501 6.82815 6.93817 7.05998 7.04775 7.23132 7.26033 7.38511 7.41071 7.53692 7.55641 7.684 7.70615 7.83519 7.85413 7.98461 8.0303 8.16251 8.21353 8.34758 8.35823 8.49374 8.51278 8.64987 8.7 8.83903 8.87954 9.02046 9.02298 9.18614 9.23046 9.37514 9.40881 9.55545 9.57171 9.72015 9.76737 9.91801 9.97338 10 3.334 5 3.46214 4 3.57073 3.664 3.96699 4.46005 6 3.94175 3.99897 4.07813 4.07964 4.21018 4.23675 4.45487 4.52006 4.61223 4.77112 6 4.52224 4.58618 4.67776 4.84118 6 3.68929 3.85369 4.0601 4.33989 4.70229 5.14137 5.80146 6.9602 10 4.09774 4.1575 4.2436 4.39972 5 4.34109 4.40617 4.4976 4.65261 5.48149 5.02621 4.68104 4.74782 4.83832 4.97934 5.31746 5.0808 5.14377 5.20011 5.28672 5.4826 6 5.75321 5.80383 5.87562 6 7 6.85177 6.90339 6.97821 7.1162 7.1164 7.26121 7.32199 7.40704 7.54983 8.16517 8.1302 3.80439 3.92297 4.17136 4.5444 5.11847 7 4.1528 4.21338 4.29833 4.44174 5 4.49785 4.55828 4.64502 4.80065 6 5.13157 5.18958 5.273 5.42353 6 6.69681 6.74669 6.81767 6.94214 8 3.91188 5 4.02835 4.1508 4.42908 4.91667 6 4.4081 4.46053 4.53397 4.65755 5.21278 5.06922 4.87115 4.92914 5.01339 5.14041 5.49121 4.15648 4.25519 4.47781 4.71001 5.02594 5.41885 5.94586 7.00449 9 4.44234 4.49258 4.56367 4.68638 6 4.70155 4.76002 4.84356 4.99158 6 4.98037 5.04102 5.06774 5.16887 5.34844 5.3779 5.44924 5.54611 5.69769 6.06845 6.38094 5.91452 5.97815 6.0692 6.10365 6.26729 6.7644 6.81217 6.88044 7 8 6.86558 6.91998 6.99542 7.11926 7.12794 7.15265 4.30623 4.35801 4.64562 4.92072 5.22283 5.54994 6.00567 6.44351 6.95354 7.69021 8.67145 9.93763 10 4.61085 4.67759 4.77024 4.92277 5.44162 5.03746 4.92491 4.99696 5.09636 5.10081 5.26589 5.29406 5.22802 5.28794 5.37373 5.52662 6 5.56432 5.62319 5.70819 5.86337 7 5.93306 5.99075 6.07255 6.08672 6.22926 6.45601 6.50571 6.57496 6.68996 7.11795 7.12727 6.97051 7.0298 7.07105 7.18447 7.36938 7.58829 7.64803 7.73178 7.87306 8.53904 8.01491 8.52652 8.58604 8.66891 8.8063 9.30734 9.05502 9.90197 9.95787 10 4.42625 4.53667 4.906 6 4.92734 4.97871 5.04876 5.08007 5.21874 5.28724 4.52967 6 4.63437 4.75003 4.97193 5.21191 5.49611 5.89854 6.43861 7.09273 8.39634 10 4.95195 5.00842 5.07871 5.22471 5.52713 5.20451 5.26302 5.34773 5.50352 6 5.48335 5.54656 5.63444 5.77966 6.29182 6.0698 5.82291 5.88378 5.97113 6.1277 6.15156 6.32625 6.39398 6.49171 6.66981 8 7.06268 7.12012 7.20289 7.35308 8 8.1234 8.18245 8.2635 8.39346 8.75602 9 4.79623 4.91435 5.1293 5.40432 5.7705 6.23915 7.11613 10 5.18349 5.24385 5.3308 5.48832 6 5.4529 5.51246 5.59675 5.74233 7 5.81674 5.88005 5.96965 6.12449 6.17624 6.34964 6.40287 6.47547 6.59028 6.8861 8 7.17698 7.23798 7.32191 7.45717 7.84729 9 4.91534 6 5.04285 6 5.1898 6 5.33138 5.40557 5.61584 5.84594 6.12017 6.40834 6.72368 7.16173 7.62135 8.20794 9.03635 10 5.60551 5.66675 5.75561 5.91999 7 5.83739 5.89997 5.9876 6.13497 6.15982 6.16779 6.09399 6.15764 6.2483 6.40767 7 6.40426 6.46693 6.55403 6.69794 7.20391 7.11235 6.73642 6.79989 6.89018 7.04838 7.33626 7.10843 7.16601 7.24899 7.39965 8 7.6438 7.70167 7.78473 7.93385 9 8.23611 8.30764 8.40989 8.59126 10 9.05817 9.11268 9.1898 9.32292 10 5.45078 6 5.58182 7 5.70455 7 5.83439 7 5.96425 6.09331 6.39308 6.78185 7.57498 9 6.38464 6.44494 6.53197 6.6906 8 6.80214 6.86514 6.95309 7.09985 7.20108 7.22231 7.44427 7.49359 7.5669 7.71326 8 7.90191 7.95602 8.03255 8.10356 8.33626 6.13025 6.23824 6.58025 8 6.54291 6.60472 6.69157 6.83882 7.62932 7.00993 6.23634 7 6.35471 7 6.5039 6.58568 6.86413 7.38216 9 6.85241 6.90873 6.98899 7.13027 7.13209 7.31258 7.37766 7.47295 7.65413 9 7.59948 7.65522 7.73011 7.84458 8.09744 8.21924 6.6531 6.76551 7.17008 9 7.15871 7.21655 7.29762 7.43435 8 7.78431 7.84813 7.94023 8.10812 8.18688 6.79971 6.90286 7.15843 7.49344 7.96357 8.79706 10 7.18419 7.25292 7.35163 7.52912 9 7.51694 7.57127 7.64761 7.77712 8.48221 8.01464 7.99359 8.05182 8.06057 8.14967 8.27122 8.80246 8.85011 8.91854 9.0415 9.23178 8.87663 8.93795 9.02465 9.12685 9.45025 6.94403 8 7.09743 8 7.26522 8 7.34411 7.51346 7.74245 7.98233 8.26434 8.61335 9.10401 9.71003 10 7.75717 7.80367 7.8692 7.98118 9 8.01762 8.07208 8.14749 8.2709 8.66895 9 8.29517 8.34621 8.41752 8.5368 9 8.62874 8.685 8.7672 8.92256 10 9.05484 9.10548 9.17431 9.28231 9.5498 10 9.68661 9.7469 9.8296 9.96199 10 7.56322 9 7.72709 7.82609 8.09685 8.48244 9.32316 10 8.03921 8.08948 8.16256 8.29869 9 8.39354 8.45926 8.54842 8.68774 9.02602 9.54016 8.97547 9.03953 9.07312 9.18403 9.37805 7.88254 9 8.04043 9 8.17941 8.28881 8.50034 8.80109 9.26349 10 8.4678 8.53359 8.62472 8.77399 9.25925 9.09286 8.72556 8.78651 8.87035 9.00542 9.36516 9.75112 9.11686 9.18304 9.27708 9.44137 10 9.81803 9.87252 9.95205 10 8.36457 8.48592 8.75289 9.11117 9.60631 10 8.77059 8.82261 8.89756 9.03344 9.29515 9.11256 9.16672 9.24074 9.3583 9.66852 10 9.61018 9.67067 9.75424 9.89024 10 8.53603 10 8.68474 10 8.7543 8.98736 9.2825 9.70913 10 9.28913 9.34529 9.42671 9.57703 10 9.67399 9.73016 9.80637 9.92545 10 9.03886 10 9.23799 10 9.4101 10 9.60529 10 9.79512 9.91732 10 0 0.0174384 0.105576 0.121621 0.210332 0.216635 0.305873 0.331942 0.421822 0.445947 0.536467 0.551003 0.642116 0.658727 0.750454 0.768348 0.860702 0.883258 0.976276 1.01328 1.10705 1.12703 1.221 1.316 1.33381 1.42948 1.45374 1.55012 1.56259 1.65963 1.66557 1.76323 1.76483 1.86309 1.87393 1.97286 2.01317 2.11297 2.13397 2.23452 2.23562 2.33681 2.34813 2.45003 2.47357 2.57627 2.611 2.71457 2.72863 2.83297 2.86413 2.96935 2.99675 3.10285 3.0128 3.22261 3.24829 3.35606 3.38396 3.49265 3.51321 3.62277 3.64465 3.75512 3.78413 3.89556 3.92267 4.0337 4.14688 4.17892 4.29312 4.31473 4.4299 4.46391 4.58016 4.62065 4.73803 4.77481 4.89333 4.93339 5.05309 5.0126 5.18641 5.19591 5.31758 5.3572 5.48009 5.51409 5.63819 5.64856 5.77371 5.78327 5.90947 5.92808 6.05543 6.0368 6.22101 6.23306 6.36285 6.37978 6.51076 6.54866 6.68103 6.72161 6.85541 6.87681 7.01191 7.01636 7.16466 7.22585 7.36392 7.38736 7.52037 7.661 7.69216 7.8343 7.85842 8.00205 8.00229 8.14927 8.16295 8.30933 8.3386 8.48659 8.49472 8.64416 8.66107 8.81207 8.8421 8.99481 9.00489 9.15916 9.17389 9.32979 9.35984 9.51756 9.56517 9.72493 9.77183 9.93365 9.95858 10 4.06619 4.18159 4.44922 4.75461 5.41439 7 4.42855 4.48082 4.55394 4.67663 5.20043 5.07517 4.8043 4.86584 4.95071 5.08825 5.18922 5.24675 5.31396 5.37116 5.44906 5.57181 5.88244 7 5.85714 5.92966 6.03169 6.14584 6.5035 4.20026 5 4.32274 5 4.47167 5 4.61922 6 4.75546 6 4.89544 4.98256 5.20597 5.48573 5.78162 6.13796 6.63984 7.27857 8.35619 10 5.21473 5.27561 5.36253 5.51625 6 5.47448 5.53739 5.62824 5.79418 7 5.80872 5.87179 5.96436 6.14169 6.13344 6.17579 6.22778 6.30393 6.44897 7 6.64242 6.70786 6.79746 6.94033 7.32605 7.06937 7.36708 7.44546 7.55749 7.75628 9 8.50238 8.5639 8.65147 8.80512 10 5.03817 5.14966 5.47782 7 5.46977 5.5231 5.59765 5.72246 6.23723 6.06223 5.18811 6 5.35815 6 5.50727 5.61513 5.88055 6.26006 6.87845 9 5.86614 5.93392 6.0318 6.14497 6.43135 6.23741 6.29874 6.38361 6.52232 6.96495 8 6.88417 6.94656 7.03642 7.12618 7.36592 5.63071 7 5.7792 7 5.93741 7 6.08134 6.16484 6.39913 6.63108 6.92249 7.23119 7.57701 8.02158 8.54834 9.08183 9.85774 10 6.37788 6.43285 6.51156 6.65195 8 6.63407 6.68805 6.76107 6.87437 7.14091 7.14489 6.89002 6.97039 7.08332 7.12878 7.35344 7.21531 7.27864 7.36911 7.52941 8 7.56507 7.62497 7.709 7.851 8.54542 8.01444 7.96433 8.02741 8.0766 8.1962 8.44401 8.49158 8.54172 8.60997 8.71737 8.98751 10 9.14234 9.20233 9.2895 9.45149 10 9.84018 9.90906 10 6.2178 7 6.34958 6.43791 6.74138 7.23718 9 6.68953 6.73839 6.80482 6.90907 7.16774 7.09554 7.18998 7.2452 7.32221 7.45044 7.94223 8 7.83271 7.88639 7.96626 8.12622 8.10358 6.49475 6.64983 7.05161 8 6.98088 7.03494 7.06044 7.14772 7.30699 7.35493 8.24976 8.30877 8.3904 8.52363 8.94444 10 6.68051 6.80879 8 6.84209 6.93942 7.18279 7.42297 7.72795 8.09941 8.58982 9.20514 10 7.15047 7.20526 7.28581 7.44086 8 7.43053 7.48663 7.56296 7.68294 7.98275 9 7.71375 7.7742 7.85883 8 8.60996 9 8.0856 8.13179 8.19591 8.30144 8.65946 9 8.56279 8.6205 8.70103 8.83524 9.35678 9.03797 9.25312 9.31509 9.40151 9.54532 10 6.97838 8 7.12957 7.28399 7.71603 9 7.6766 7.72866 7.80095 7.92009 8.32956 8.03445 7.29858 8 7.48425 9 7.64363 7.78407 8.08718 8.46598 8.97945 9.84482 10 8.06861 8.12076 8.19292 8.31083 8.68666 9 8.45996 8.51343 8.59065 8.73163 10 8.99748 9.05196 9.05536 9.13477 9.25638 9.88687 9.94564 10 9.92901 9.98063 10 7.82773 9 8.00847 8.14563 9 8.06813 8.32141 9 8.35275 9 8.53928 9 8.71753 8.89377 9.29589 10 9.39824 9.4507 9.52349 9.64312 10 9.65581 9.71758 9.80612 9.96439 10 8.89936 8.98436 10 9.09294 10 9.28587 9.41223 9.64514 9.99638 10 9.67059 9.73551 9.82659 9.98055 10 9.95708 10 9.44095 10 9.64443 10 9.83541 9.91623 10 0 0.0199533 0.126293 0.15145 0.258522 0.284264 0.39208 0.428272 0.536902 0.551195 0.660525 0.681808 0.791886 0.818592 0.929459 0.974152 1.08592 1.03645 1.23518 1.25132 1.36472 1.37555 1.48969 1.49565 1.61051 1.6162 1.73178 1.77022 1.88673 1.90884 2.0262 2.01567 2.16008 2.16643 2.28538 2.3141 2.43397 2.46307 2.58388 2.61443 2.7362 2.75453 2.87719 2.89279 3.01634 3.05968 3.2008 3.23851 3.36431 3.38195 3.5087 3.5698 3.69779 3.73332 3.86241 3.92074 4.05111 4.02431 4.2069 4.22992 4.3624 4.39879 4.53245 4.58704 4.72202 4.74501 4.88111 4.89516 5.03233 5.02107 5.19174 5.27329 5.4132 5.43476 5.57586 5.60719 5.74955 5.76807 5.91164 5.95808 6.10308 6.04327 6.29302 6.35827 6.50634 6.5281 6.67749 6.6996 6.85033 6.86767 7.01973 7.03591 7.20925 7.24558 7.40068 7.42804 7.58463 7.58597 7.74385 7.77023 7.92964 7.95464 8.11559 8.05809 8.33683 8.35547 8.51983 8.58085 8.74716 8.76196 8.92985 8.97367 9.14343 9.05773 9.37339 9.40786 9.58151 9.63201 9.80772 9.85637 10 4.2753 5 4.43955 6 4.60572 6 4.78623 4.98562 5.47062 7 5.49149 5.55217 5.63988 5.80041 7 5.52098 5.58038 5.66378 5.80498 6.52965 6.01523 4.94058 6 5.10486 5.22493 5.46844 5.80549 6.17226 6.86589 9 5.51824 5.57423 5.65349 5.79058 7 5.84644 5.90176 5.98067 6.11995 6.13783 6.35396 6.41768 6.50884 6.67101 8 7.03588 7.09137 7.16928 7.3012 7.98023 8 5.27722 6 5.47363 6 5.57528 7 5.82462 5.89337 6.09537 6.32422 6.6286 7.03466 7.55356 8.35825 10 6.0877 6.14466 6.22381 6.35445 6.81009 7 6.32661 6.38736 6.4727 6.61739 7.39283 7.03427 6.60683 6.66309 6.74175 6.87349 7.42021 7.02438 7.00043 7.05281 7.12528 7.24364 7.61955 8 7.58175 7.63511 7.71155 7.84794 9 8.50654 8.56314 8.64215 8.77398 9.29303 9.05175 9.77026 9.82029 9.89179 10 5.98238 6.0804 6.44043 8 6.42902 6.48438 6.56768 6.7411 8 6.13516 6.27661 6.54193 6.87571 7.38006 9 6.50711 6.57014 6.65926 6.81296 8 6.88549 6.93806 7.01065 7.10938 7.38866 7.54322 7.48079 7.54396 7.63067 7.76972 8.15805 8.1606 7.77443 7.8197 7.88547 8.00763 8.43509 6.28877 6.41365 6.66707 6.96984 7.31895 7.79991 8.69389 10 6.65155 6.71152 6.79615 6.94133 8 6.96333 7.03067 7.08243 7.21719 7.42261 7.35798 7.41327 7.49059 7.62013 8.16167 8.11088 7.85722 7.91376 7.99221 8.12127 8.13618 8.16063 8.68515 8.74007 8.81974 8.96707 10 9.12062 9.18378 9.27074 9.41119 9.82172 10 6.48542 8 6.66279 6.74323 6.97471 7.31014 7.76633 9 6.96836 7.02973 7.07231 7.17961 7.39245 7.44877 7.30038 7.36432 7.4566 7.62475 9 7.90698 7.97889 8.0796 8.11167 8.31528 6.80714 6.98174 8 6.99332 7.11784 8 7.18339 7.28945 7.53425 7.85534 8.40231 10 7.59585 7.66793 7.76833 7.93505 8.55441 8.02593 7.96322 8.01568 8.06682 8.17429 8.43887 8.55903 8.61258 8.68868 8.82163 10 8.91332 8.97603 9.0654 9.10306 9.27509 7.37555 7.46342 8 7.57124 7.69509 7.94022 8.43507 10 7.95134 8.00315 8.07066 8.1862 8.5564 8.71318 8.35667 8.41004 8.48774 8.63302 9 8.47449 8.53057 8.61173 8.76087 10 7.75278 9 7.93232 8.06466 8.31252 8.64411 9.04888 9.62911 10 8.34441 8.40746 8.49537 8.64168 9.19971 9.11485 8.64921 8.70169 8.77313 8.88561 9.16898 9.10901 9.07841 9.14368 9.24344 9.46365 10 9.65012 9.71735 9.80825 9.94923 10 8.15452 8.36791 9 8.38296 8.46582 8.83604 10 8.80894 8.8746 8.96654 9.12111 9.19147 9.20104 8.57067 10 8.81714 8.88373 9.12267 9.46005 10 9.12672 9.18205 9.2605 9.39673 10 9.46628 9.53199 9.62441 9.78152 10 9.03231 9.12966 9.5029 10 9.48476 9.54396 9.62849 9.77796 10 9.27966 9.42741 9.69777 10 9.70154 9.77161 9.86696 10 9.43328 10 9.68938 9.81015 10 9.91408 10 0 0.016374 0.0892189 0.100161 0.173474 0.191665 0.265491 0.267451 0.341705 0.35472 0.42947 0.437361 0.512583 0.532894 0.608667 0.624339 0.700643 0.710838 0.787647 0.804638 0.881999 0.892231 0.970111 0.985302 1.06313 1.14203 1.15464 1.23409 1.25503 1.33509 1.33882 1.4194 1.42555 1.50667 1.52137 1.60309 1.63359 1.716 1.7251 1.80809 1.82112 1.90472 1.92267 2.00692 2.02109 2.11295 2.13775 2.2234 2.23081 2.31541 2.40223 2.41606 2.50355 2.50847 2.59657 2.62628 2.71519 2.7526 2.84236 2.86297 2.95349 2.98081 3.07215 3.02062 3.18501 3.19718 3.29005 3.29536 3.38892 3.39005 3.48429 3.52661 3.62184 3.64408 3.74017 3.75428 3.85118 3.86836 3.96611 3.99505 4.09375 4.00948 4.19937 4.29961 4.32368 4.42489 4.43917 4.54128 4.55668 4.6597 4.68124 4.78524 4.78559 4.89043 4.90181 5.00758 5.01693 5.1313 5.1641 5.27202 5.29174 5.40072 5.41391 5.5239 5.54383 5.65492 5.676 5.78822 5.81354 5.92695 5.94586 6.06042 6.02582 6.20215 6.21909 6.33606 6.34326 6.46135 6.46833 6.58756 6.60019 6.72062 6.72615 6.84775 6.85542 6.97823 7.01392 7.13822 7.16915 7.29494 7.31578 7.44299 7.45899 7.58759 7.61404 7.74122 7.87264 7.87341 8.00616 8.02881 8.16938 8.20193 8.33805 8.37912 8.51473 8.65415 8.68173 8.82294 8.85289 8.99597 9.05388 9.19917 9.2092 9.34868 9.49729 9.51455 9.66505 9.67597 9.82834 9.84112 9.99544 10 3.39693 4 3.50539 3.6034 3.87247 4.24274 4.84695 6 3.83741 3.89285 3.97122 4.10617 4.16109 4.21066 4.26916 4.34871 4.47367 4.78477 6 4.83667 4.89465 4.97927 5.1387 5.11834 3.62408 3.77997 4.08788 4.58294 6 4.09722 4.15501 4.23886 4.39407 5 4.63696 4.68981 4.76447 4.89278 6 3.72257 5 3.8362 5 3.94401 4.03813 4.25656 4.51062 4.83715 5.28866 5.82202 8 4.29443 4.35963 4.45115 4.60602 5.38885 5.0427 4.57648 4.63352 4.71164 4.83627 5.17384 5.12094 4.92871 5.00212 5.1024 5.27607 5.91121 5.44077 5.50372 5.59476 5.76173 7 6.38029 6.43499 6.51419 6.65988 8 4.06889 4.17185 4.42071 4.6865 4.92397 5.27387 5.67807 6.30835 7.08252 8.40763 10 4.4052 4.45963 4.53994 4.6963 6 4.68822 4.7384 4.8068 4.91469 5.18942 5.08594 4.9965 5.05008 5.05475 5.13231 5.26669 5.26923 5.27814 5.33056 5.40764 5.55617 6 5.70623 5.76127 5.84029 5.98216 7 6.22571 6.27679 6.34884 6.47225 7 7.11475 7.17568 7.2635 7.42291 8 8.45221 8.50395 8.57773 8.70773 10 4.1887 5 4.30226 4.44385 4.73906 5.12119 5.71335 8 4.74626 4.80249 4.88104 5.01234 5.4139 5.54102 5.17752 5.2251 5.29115 5.39995 5.77146 6 5.8752 5.93298 6.01427 6.12517 6.52132 6.52175 4.42568 5 4.54118 4.65652 4.98349 5.37381 6.19849 8 4.9106 4.96796 5.04897 5.09936 5.2959 5.35288 5.41481 5.50673 5.68917 7 5.97525 6.02428 6.05829 6.14818 6.33482 7.767 7.81541 7.88135 7.98525 8.24833 8.05381 4.66418 6 4.76724 4.87626 5.15803 5.59652 6.27096 8 5.14094 5.19468 5.27059 5.40111 6 5.53075 5.58469 5.66242 5.80349 7 6.27014 6.32547 6.40076 6.51915 6.8155 8 7.3749 7.43145 7.5137 7.66694 9 4.88868 5.00198 5.21331 5.45518 5.73395 6.07366 6.59043 7.43766 10 5.1888 5.24227 5.32008 5.46541 6 5.43823 5.4968 5.5783 5.71327 6.2 6.0995 5.73445 5.79106 5.87406 6.03255 6.3202 6.0949 6.15863 6.24929 6.40812 7 6.57444 6.62443 6.69267 6.80072 7.08131 7.1949 7.46064 7.51566 7.59758 7.76201 9 8.50131 8.57048 8.67197 8.86624 10 5.02223 6 5.13395 5.24077 5.56019 7 5.54773 5.6054 5.68791 5.83463 7 5.24985 5.4095 6 5.3782 5.53831 7 5.52891 5.63694 6 5.65214 7 5.78176 5.88766 6.09878 6.46204 7.01771 9 6.13514 6.19312 6.27692 6.4302 7 6.43393 6.49278 6.57745 6.73044 8 7.06066 7.11666 7.19781 7.34738 8 5.91921 7 6.05528 6.19825 7 6.21158 6.30085 6.52273 6.76322 7.02259 7.26366 7.58562 7.98784 8.4453 8.96949 9.60305 10 6.52933 6.58619 6.66552 6.79772 7.31063 7.0474 6.77488 6.83044 6.90696 7.03064 7.25685 7.3926 7.04395 7.11519 7.22047 7.42659 8 7.33804 7.39599 7.48209 7.65357 8 7.61552 7.6696 7.74939 7.90475 9 7.99332 8.04936 8.05836 8.14253 8.28118 8.4793 8.53717 8.61795 8.75271 9.28272 9.05807 9.05598 9.1167 9.20561 9.3747 10 9.75919 9.82624 9.92227 10 6.33862 7 6.45441 6.56562 6.88887 7.37837 9 6.86929 6.92821 7.01293 7.13846 7.52038 7.43125 7.4909 7.57498 7.71873 9 7.68369 7.73857 7.82126 7.9942 9 6.59251 6.74453 7.02652 7.35628 7.73096 8.23768 8.87478 10 7.04504 7.1085 7.19452 7.32865 7.65114 8 7.38373 7.44343 7.5283 7.67675 9 7.79529 7.85163 7.93711 8.12057 8.11107 8.28971 8.35186 8.44469 8.63299 9 9.02495 9.08268 9.16273 9.29418 9.73056 10 6.71965 6.8514 7.17698 7.68994 9 7.17913 7.23201 7.30602 7.4303 7.96864 8 7.74946 7.80378 7.88108 8.01668 8.44242 6.88225 6.97736 7.16815 7.40209 7.65728 8.06373 8.69083 10 7.2835 7.34725 7.43628 7.58501 8.18078 8.13064 7.53811 7.59205 7.67051 7.81685 9 7.87281 7.93331 8.01907 8.13057 8.48616 8.27891 8.33006 8.40134 8.51977 8.9628 9 9.08955 9.15595 9.25207 9.42879 10 7.05719 8 7.21058 7.2565 7.53186 7.95212 9 7.4982 7.56799 7.66936 7.85752 9 7.96738 8.02201 8.0677 8.17716 8.38559 7.37492 7.46064 7.73809 8.11941 8.89089 10 7.71123 7.76574 7.84542 7.99617 9 8.08863 8.14068 8.21714 8.36398 9 8.69906 8.75196 8.82749 8.96108 10 7.4595 7.62988 7.88417 8.17963 8.6524 9.47751 10 7.90104 7.96279 8.04782 8.10413 8.30171 8.36401 8.23171 8.28014 8.34813 8.46327 9 8.64939 8.71005 8.79673 8.95036 10 9.45169 9.50445 9.57989 9.7138 10 7.6782 7.81439 8.10885 8.58203 10 8.10576 8.17016 8.26614 8.4594 9 8.61639 8.66915 8.74514 8.88284 10 7.81647 9 7.95024 9 8.14387 8.28992 9 8.3111 8.45799 8.84245 10 8.79004 8.84874 8.92772 9.0489 9.18907 9.36569 8.46857 8.60278 9.06627 10 8.8852 8.94924 9.03882 9.11895 9.38425 9.40256 8.63218 10 8.81461 10 8.87727 10 9.11045 9.21905 9.53962 10 9.52708 9.58222 9.65717 9.77477 10 9.29148 9.39658 9.64233 9.94307 10 9.62663 9.67971 9.75522 9.88746 10 9.91858 9.97346 10 9.46037 9.55726 10 9.63291 10 9.8166 10 9.97114 10 0 0.0150459 0.0973245 0.115139 0.197986 0.218023 0.301458 0.309415 0.393375 0.395841 0.480301 0.489128 0.574131 0.596518 0.682151 0.721552 0.807924 0.845502 0.932613 0.957253 1.04503 1.01565 1.14914 1.15941 1.24842 1.26481 1.35446 1.36587 1.45616 1.47038 1.56131 1.57767 1.66928 1.69226 1.78459 1.81402 1.90712 1.92816 2.022 2.02729 2.14395 2.16527 2.26065 2.27724 2.37336 2.40197 2.49891 2.51294 2.61063 2.62572 2.72417 2.74797 2.84725 2.84871 2.94869 2.97305 3.07388 3.02483 3.20054 3.24101 3.34372 3.35931 3.46286 3.47723 3.58162 3.60637 3.71169 3.74549 3.85182 3.86189 3.96908 3.99516 4.10334 4.03215 4.24493 4.27026 4.3805 4.40909 4.51181 4.62389 4.64035 4.75342 4.76961 4.8837 4.93082 5.04619 5.01791 5.16633 5.28358 5.31646 5.43493 5.46582 5.5855 5.60695 5.72781 5.76179 5.88394 5.89238 6.01563 6.03447 6.17473 6.20673 6.33268 6.35202 6.47924 6.51623 6.64488 6.67362 6.80368 6.82888 6.96034 6.9915 7.12443 7.03541 7.29464 7.31053 7.44641 7.45998 7.59727 7.62983 7.76874 7.81024 7.95089 7.99137 8.13378 8.02709 8.3052 8.3241 8.46981 8.5047 8.6483 8.7973 8.81949 8.97026 9.02514 9.17805 9.21722 9.37217 9.40044 9.55736 9.58589 9.74483 9.79222 9.95343 9.96464 10 3.18351 3.33524 3.62375 4.1478 6 3.63765 3.68844 3.76138 3.89248 5 4.12882 4.18493 4.26378 4.39759 5 5.27058 5.33275 5.41737 5.55054 5.88527 7 3.30798 3.45339 3.76199 4.19691 4.9158 7 3.68948 3.74593 3.82719 3.97423 5 4.10531 4.16571 4.25145 4.40083 5 4.81178 4.87257 4.96065 5.12302 5.15041 3.43613 3.54479 3.80531 4.11047 4.68959 6 3.80396 3.86222 3.94362 4.07973 4.2074 4.23081 4.17994 4.24868 4.34513 4.50817 5.31155 5.07252 4.71553 4.77313 4.85387 4.98998 5.62276 5.00812 3.55016 3.62793 3.82992 4.12189 4.65711 6 3.87113 3.92286 3.99811 4.1384 4.09559 4.16228 4.22773 4.31823 4.46577 4.92794 6 4.66913 4.72649 4.80346 4.92087 5.17801 5.1331 3.65815 3.8188 4.16692 4.73812 6 4.17442 4.22947 4.30442 4.4224 4.71945 5 4.77975 4.83873 4.92437 5.08314 5.1973 3.7749 5 3.90953 5 4.0666 5 4.22265 5 4.36364 5 4.44936 4.61276 4.93614 6 4.98154 5.03602 5.06104 5.15163 5.32694 4.61942 4.75312 5.11791 6 5.14435 5.19861 5.27459 5.40235 5.96898 6 5.89252 5.9518 6.03285 6.10606 6.31601 6.4244 4.75314 4.8192 5.08733 6 5.10388 5.15505 5.22477 5.33473 5.61412 6 5.64816 5.70289 5.78069 5.91659 7 4.88161 5.00294 5.28144 5.56755 5.9266 6.32089 6.81364 7.4355 8.2599 9.89101 10 5.24384 5.29195 5.35934 5.4728 5.98645 6 5.55752 5.61216 5.6886 5.81688 6.36549 6.03037 5.88554 5.9428 6.02373 6.11771 6.42006 6.30712 6.36298 6.44001 6.56482 6.93782 8 6.78592 6.83843 6.91298 7.04282 7.27497 7.4151 7.46314 7.53057 7.64471 8.2266 8.05031 8.28014 8.34486 8.43496 8.58438 9.13121 9.18729 9.64362 9.70073 9.78015 9.91143 10 5.01471 6 5.15164 6 5.29819 5.38947 5.62576 5.94717 6.30118 6.84758 7.83381 10 5.58626 5.64466 5.7266 5.86508 6.54504 6.01326 5.86714 5.9375 6.03493 6.13264 6.42445 6.48835 6.26811 6.32608 6.40847 6.55235 7 6.74629 6.80286 6.88118 7.00931 7.36084 7.60756 7.62079 7.67647 7.75348 7.87919 8.27657 8.05788 7.91807 7.97199 8.0502 8.09613 8.24212 5.45425 5.58345 5.88108 6.35133 8 5.80594 5.86132 5.94231 6.09566 6.15362 6.28859 6.34371 6.42054 6.54834 7.03291 7.36025 6.53871 6.59789 6.68246 6.83239 8 5.60089 7 5.73488 7 5.90657 6.03044 7 6.05143 7 6.21316 6.3129 6.54504 6.85318 7.51453 9 6.5492 6.61784 6.71669 6.89579 8 6.87163 6.93665 7.03003 7.13726 7.42634 7.37477 7.43407 7.52047 7.68235 9 7.66976 7.72476 7.80179 7.93141 8.5126 8.01315 6.35741 7 6.50435 6.61012 6.98562 7.56332 10 7.04009 7.09599 7.17539 7.31388 8 7.7267 7.77986 7.85727 8 9 7.75846 7.81695 7.89821 8.03222 8.3034 8.39891 6.66402 6.79188 7.04501 7.36109 7.93847 10 7.10522 7.15883 7.23189 7.34718 7.64098 8 7.48458 7.54932 7.64754 7.85824 9 8.06581 8.11946 8.19856 8.35235 9 6.79592 6.86998 7.17502 8 7.18034 7.2402 7.32374 7.46303 8 7.49779 7.55178 7.62719 7.75316 8.25741 8.05678 6.95909 7.02536 7.26025 7.52188 7.7843 8.2036 8.71724 9.65555 10 7.25845 7.31497 7.3972 7.5505 8 7.54038 7.59902 7.68091 7.81775 8.36736 8.03715 7.86711 7.93312 8.02281 8.1248 8.38308 8.56656 8.21253 8.26486 8.34074 8.48089 9 8.8183 8.86815 8.93808 9.05625 9.21007 9.22434 9.72321 9.77681 9.85026 9.96758 10 7.0506 8 7.31223 8 7.4688 7.58529 7.86107 8.31936 9.06743 10 7.86734 7.9295 8.01735 8.13489 8.52359 8.24726 8.29373 8.35777 8.46137 8.76794 9 9.00626 9.06528 9.14693 9.28021 9.70168 10 7.62528 7.73182 8.05161 8.5909 10 8.02148 8.07762 8.15869 8.3067 9 8.55624 8.61452 8.69619 8.83378 9.46443 9.02087 7.79712 9 7.98281 9 8.13864 8.21537 8.42734 8.68741 9.0125 9.40861 9.94148 10 8.43541 8.49458 8.58105 8.7445 10 8.6788 8.7297 8.80062 8.91844 9.35809 9.02652 8.98415 9.03824 9.05917 9.1429 9.28755 9.35093 9.37882 9.42978 9.50179 9.62563 10 9.88543 9.95426 10 8.31757 8.44126 8.70871 8.98207 9.3555 9.91456 10 8.69695 8.75872 8.84474 8.98752 9.51456 9.02003 9.03033 9.08839 9.16988 9.30767 9.99229 10 9.39162 9.45593 9.54933 9.72266 10 9.93516 9.98802 10 8.40331 8.61928 8.89291 9.33658 10 8.90971 8.96675 9.04474 9.09442 9.2674 9.34678 9.28643 9.34311 9.42527 9.57689 10 8.6887 10 8.87694 8.97469 9.21446 9.476 9.82917 10 9.19896 9.26471 9.35833 9.52272 10 9.4787 9.53983 9.6231 9.75433 10 9.79284 9.85224 9.93432 10 9.01662 9.11853 9.32404 9.59956 9.92206 10 9.3665 9.42627 9.50914 9.64522 10 9.61329 9.67746 9.77028 9.94044 10 9.95654 10 9.19192 10 9.36878 9.44812 9.67878 10 9.65902 9.71468 9.79502 9.9414 10 9.97271 10 9.59017 9.7034 9.96766 10 9.95303 10 9.72773 9.88352 10 9.91525 10 0 0.0189475 0.103244 0.128492 0.213404 0.220029 0.305459 0.32642 0.412456 0.432414 0.519058 0.523335 0.610504 0.624079 0.711833 0.72708 0.815436 0.823287 0.912209 0.939943 1.02956 1.0296 1.14954 1.16661 1.25758 1.26155 1.3531 1.36566 1.45784 1.46617 1.55897 1.56908 1.66252 1.67954 1.77366 1.77384 1.86855 1.89527 1.99075 2.01261 2.10482 2.20164 2.20747 2.30496 2.30634 2.40447 2.42665 2.52557 2.5438 2.64349 2.6809 2.7815 2.80262 2.9002 3.00228 3.01305 3.11819 3.13511 3.23617 3.34055 3.35623 3.46145 3.49234 3.59851 3.61584 3.72289 3.74502 3.85299 3.87883 3.98776 4.01228 4.12219 4.14097 4.25182 4.26418 4.37595 4.42558 4.53855 4.561 4.67499 4.69397 4.80897 4.83244 4.93148 5.04638 5.16411 5.17228 5.29099 5.3315 5.45148 5.48645 5.60768 5.63279 5.7552 5.78666 5.91032 5.94845 6.07346 6.02901 6.2289 6.25136 6.37891 6.41615 6.5451 6.57061 6.7009 6.75053 6.88238 6.89329 7.0264 7.04432 7.20549 7.2265 7.36259 7.37242 7.50984 7.51561 7.65435 7.70177 7.84224 7.87436 8.01645 8.01736 8.17744 8.22771 8.37318 8.39213 8.5392 8.55127 8.69991 8.7282 8.8786 8.90519 9.05737 9.01979 9.23116 9.25657 9.41235 9.45513 9.61298 9.62247 9.78209 9.80619 9.96778 9.98676 10 3.69176 3.81308 4.04647 4.30241 4.58169 4.94572 5.35107 5.90811 6.75672 8.37234 10 4.02588 4.07732 4.14756 4.25883 4.54844 5 4.28739 4.34639 4.43037 4.57768 6 4.57876 4.63057 4.70357 4.82823 5.86019 5.00083 4.90318 4.95674 5.02755 5.08962 5.24273 5.45473 5.33844 5.39937 5.48396 5.6233 6.09963 6.2154 5.84428 5.90136 5.98311 6.12889 6.13417 6.59065 6.65272 6.74061 6.8927 8 7.92686 7.98325 8.06316 8.08907 8.2434 8.3886 8.44137 8.51497 8.63755 9.10908 9.15239 3.83161 3.93372 4.26743 5 4.27053 4.33509 4.42964 4.6096 6 4.41418 4.4716 4.55268 4.69192 6 3.94869 5 4.08501 5 4.2211 5 4.33805 5 4.46787 6 4.60086 4.71368 5.06958 6 5.16451 5.22599 5.31338 5.46608 6 6.26168 6.3183 6.39877 6.53929 7 4.72532 6 4.87654 6 5.0019 6 5.17137 5.26932 5.4672 5.72938 6.05682 6.42715 6.96113 7.86821 10 5.50023 5.57007 5.667 5.82656 6.36824 6.06039 5.7372 5.79425 5.87448 6.01086 6.53034 6.56197 6.06287 6.11582 6.19459 6.35226 7 6.49457 6.55139 6.63182 6.77087 8 7.03222 7.09091 7.17332 7.31284 8 7.9782 8.04166 8.07137 8.17828 8.36804 8.06041 8.12497 8.21222 8.34735 8.66255 10 5.29527 5.40957 5.67443 5.92149 6.24151 6.61558 7.23444 8.21233 10 5.65706 5.70662 5.77797 5.90713 7 5.97515 6.04181 6.07577 6.19016 6.39011 6.28345 6.34607 6.4344 6.58574 8 6.70481 6.75825 6.83266 6.95611 7.40957 7.02276 7.2423 7.29936 7.38113 7.52732 8 8.3273 8.37835 8.44994 8.57082 9 5.4314 5.51261 5.87309 7 5.89482 5.94776 6.01899 6.09708 6.28529 6.48775 5.5631 7 5.69824 7 5.84359 7 5.96796 7 6.12847 6.24401 6.50759 6.73101 7.06244 7.48041 8.11407 9.22016 10 6.45426 6.51394 6.59606 6.72846 7.11105 7.19825 6.76274 6.81992 6.90021 7.03612 7.3324 7.35357 7.03245 7.08796 7.1664 7.30134 8 7.45068 7.50388 7.57701 7.6947 8.03065 8.37273 8.0219 8.08055 8.16382 8.30883 9 9.05673 9.11338 9.19229 9.32325 9.80691 10 6.28398 7 6.40646 6.5039 6.77785 7.11689 7.52124 8.23045 10 6.72293 6.78432 6.87215 7.02828 7.41137 7.07312 7.13333 7.21747 7.35828 7.93601 8 7.55296 7.6118 7.6963 7.8481 9 8.2533 8.31387 8.40363 8.58085 9 9.67921 9.73846 9.82322 9.97396 10 6.5431 6.65389 6.95469 8 7.08634 7.15282 7.24885 7.42426 8 6.67499 8 6.83588 8 6.99296 7.06785 7.37221 8 7.35552 7.42062 7.51162 7.66392 8.29027 8.07314 7.17732 7.30188 7.65239 8.15532 10 7.64699 7.70429 7.78477 7.92109 8.63279 8.00736 8.27366 8.33408 8.41709 8.55048 8.92754 10 9.40837 9.48198 9.58654 9.76895 10 7.34149 7.42325 7.66263 8.17918 10 7.6559 7.71047 7.78579 7.90808 8.27924 8.05501 8.03799 8.0977 8.18412 8.34283 9 8.89717 8.95376 9.03779 9.11992 9.28527 7.47343 7.61215 7.93026 8.38504 9.13132 10 7.95854 8.01235 8.07001 8.18337 8.49964 8.41561 8.48455 8.57888 8.72903 9.1304 9.22568 9.21589 9.26803 9.34169 9.46838 10 7.62721 7.75407 9 7.79231 9 7.93005 8.05065 8.33172 8.89461 10 8.28033 8.3472 8.44332 8.6165 10 8.71905 8.77537 8.85312 8.97943 9.36444 9.03664 8.09411 8.14561 8.39205 8.81025 10 8.44772 8.52103 8.62357 8.79548 9.52073 9.03124 8.89423 8.94578 9.02171 9.11965 9.33514 8.2807 8.40808 8.63933 8.97987 9.55772 10 8.74482 8.80032 8.87725 9.00346 9.3934 9.74984 9.09447 9.14469 9.211 9.30887 9.49962 10 9.7272 9.78657 9.87236 10 9.77195 9.82486 9.89935 10 8.45055 8.54277 8.76613 8.99618 9.2828 9.65334 10 8.79078 8.85054 8.93841 9.10766 9.15564 9.06057 9.11348 9.18606 9.30233 9.62471 10 9.34871 9.39855 9.47031 9.60025 10 9.7267 9.78882 9.87575 10 8.62876 10 8.81397 10 8.99933 10 9.17868 9.30729 10 9.35097 9.50123 10 9.57749 10 9.76833 10 9.95639 10 0 0.0160422 0.100147 0.124586 0.209332 0.219035 0.304343 0.323813 0.409748 0.427666 0.514228 0.543132 0.630397 0.639092 0.726945 0.755632 0.844204 0.874618 0.96393 0.997353 1.08744 1.0026 1.18073 1.19312 1.28445 1.30258 1.3946 1.40371 1.49639 1.52017 1.61361 1.62587 1.72001 1.73413 1.82898 1.85495 1.94582 2.04209 2.01885 2.15803 2.18057 2.27843 2.29116 2.38978 2.4186 2.51811 2.53565 2.63598 2.66706 2.76831 2.79927 2.90146 2.90659 3.00955 3.00683 3.12015 3.12561 3.23016 3.26718 3.37278 3.39053 3.49705 3.50994 3.61734 3.66294 3.7715 3.78145 3.89092 3.90037 4.01075 4.02521 4.14576 4.25806 4.27772 4.39106 4.41666 4.53111 4.54801 4.66351 4.70833 4.82514 4.83639 4.95426 4.98665 5.10576 5.02831 5.25462 5.26517 5.38663 5.4003 5.52292 5.52916 5.65288 5.69556 5.82073 5.85285 5.97942 6.00479 6.1327 6.16183 6.29117 6.30419 6.43482 6.45694 6.58897 6.62097 6.75453 6.78103 6.89718 7.03335 7.01155 7.18252 7.24495 7.38449 7.40889 7.55003 7.56077 7.70342 7.74416 7.88866 7.92354 8.06988 8.01334 8.23127 8.24783 8.39752 8.40256 8.55389 8.56875 8.72186 8.72564 8.88044 8.90027 9.05698 9.0