<?xml version="1.0"?><VTKFile type="PolyData" version="0.1" byte_order="LittleEndian">
<PolyData>
<Piece NumberOfLines="982" NumberOfPoints="15922">
<PointData Scalars=" PointData">
<DataArray type="Float32" Name="time" NumberOfComponents="1" format="ascii" >
0 0.170305 0.341084 0.512341 0.684077 0.856297 1.029 1.2022 1.37588 1.55006 1.72473 1.89991 2.07559 2.25177 2.42846 2.60566 2.78337 2.96161 3.14036 3.31964 3.49944 3.67977 3.86063 4.04203 4.22397 4.40645 4.58948 4.77305 4.95718 5.14186 5.32709 5.5129 5.69926 5.8862 6.0737 6.26179 6.45045 6.63969 6.82952 7.01995 7.21096 7.40257 7.59479 7.78761 7.98103 8.17507 8.36973 8.56501 8.76091 8.95744 9.1546 9.3524 9.55084 9.74993 9.94966 10.1501 10.3511 10.5528 10.7552 10.9582 11.1619 11.3663 11.5714 11.7772 11.9837 12.1908 12.3987 12.6073 12.8166 13.0266 13.2373 13.4487 13.6609 13.8739 14.0875 14.3 14.3019 14.5171 14.733 14.9497 15.1672 15.3854 15.6044 15.8242 16.0448 16.2662 16.4884 16.7114 16.9352 17.1599 17.3853 17.6116 17.8388 18.0668 18.2956 18.5253 18.7558 18.9873 19.2196 19.4528 19.6868 19.9218 20.1577 20.3945 20.6322 20.8708 21.1104 21.3509 21.5924 21.8348 22.0782 22.3225 22.5679 22.8142 23.0615 23.3098 23.5591 23.8095 24.0608 24.3132 24.5667 24.8212 25.0767 25.3334 25.5911 25.8499 26.1098 26.3708 26.6329 26.8962 27.1606 27.4261 27.6928 27.9606 28.2297 28.4999 28.7713 29.0439 29.3178 29.5929 29.8692 30.1467 30.4256 30.7057 30.9871 31.2697 31.5537 31.8391 32.1257 32.4137 32.7031 32.9938 33.286 33.5795 33.8744 34.1708 34.4686 34.7678 35.0686 35.3708 35.6745 35.9797 36.2865 36.5948 36.9046 37.2161 37.5291 37.8437 38.16 38.4779 38.7974 39.1187 39.4416 39.7662 40.0926 40.4207 40.7506 41.0822 41.4157 41.751 42.0881 42.4272 42.768 43.1109 43.4556 43.8 43.8023 44.1509 44.5 44.5016 44.8542 45.2089 45.5657 45.9246 46.2856 46.6487 47.014 47.3815 47.7512 48.1231 48.4973 48.8738 49.2527 49.6339 50.0175 50.4 50.4035 50.7919 51.1828 51.5763 51.9723 52.3708 52.772 53.1758 53.5823 53.9915 54.4 54.4035 54.8182 55.2358 55.6562 56.0796 56.5059 56.9352 57.3675 57.8 57.8029 58.2414 58.683 59.1279 59.576 60.0275 60.4822 60.9404 61.4 61.4021 61.8672 62 6.67761 7.36152 8.08242 8.84453 9.65286 10.5134 11.4333 12.4214 13.4886 14.6488 15.9196 17.3244 18.8948 20.6752 22.7306 25.1615 28.1368 31.9725 37.3787 46.5 62 6.86756 7.55147 8.27237 9.03448 9.84281 10.7 11.6197 12.6 13.6663 14.8253 16.0948 17.498 19.0664 20.8441 22.896 25.3 28.2624 32.0768 37.4 46.4 62 7.0581 7.74201 8.46291 9.22502 10.0333 10.8939 11.8138 12.8 13.8671 15.027 16.2976 17.7 19.2698 21.0495 23.1 25.5287 28.5 32.3 37.6798 46.8 62 7.24924 7.93315 8.65404 9.41615 10.2245 11.085 12 12.9877 14.0545 15.2142 16.4843 17.8884 19.4579 21.2371 23.2908 25.7 28.667 32.4889 37.8676 46.9 62 7.44097 8.12488 8.84577 9.60789 10.4162 11.2767 12.1966 13.1847 14.252 15.4121 16.6829 18.0877 19.6582 21.4386 23.4939 25.9 28.869 32.6944 38.08 47.2 62 7.6333 8.31721 9.03811 9.8 10.6 11.4599 12.3792 13.3666 14.4329 15.592 16.8616 18.2649 19.8334 21.6 23.6502 26.0739 29.0384 32.8562 38.2 47.2 62 7.82624 8.51015 9.23105 9.99316 10.8 11.6604 12.5802 13.5682 14.6353 15.7952 17.0658 18.4704 20.0405 21.8205 23.8752 26.3 29.2727 33.1 38.4956 47.6 62 8.01979 8.7 9.42069 10.1826 10.9906 11.8509 12.7704 13.7582 14.8249 15.9846 17.2547 18.6587 20.2282 22 24.0524 26.4793 29.4485 33.2741 38.6 47.6 62 8.21396 8.89787 9.61876 10.3809 11.1892 12.0497 12.9696 13.9577 15.025 16.1851 17.4559 18.8607 20.4312 22.2 24.2534 26.6817 29.6529 33.4819 38.8746 48 62 8.40874 9.09265 9.81354 10.5757 11.384 12.2445 13.1644 14.1525 15.2197 16.3799 17.6507 19.0555 20.6259 22.4 24.4543 26.8838 29.8568 33.6888 39.0876 48.2 62 8.60414 9.28805 10.0089 10.7711 11.5794 12.4399 13.3598 14.3479 15.4151 16.5753 17.8461 19.2509 20.8213 22.6 24.655 27.0856 30.0602 33.8949 39.2991 48.5 62 8.80017 9.48408 10.2 10.9618 11.7698 12.63 13.5494 14.5371 15.6 16.7591 18.0287 19.432 21 22.7779 24.83 27.2563 30.2 34 39.3 48.3 62 8.99682 9.68073 10.4 11.162 11.9702 12.8306 13.7504 14.7383 15.8 16.9594 18.2294 19.6332 21.2 22.9784 25.0311 27.4583 30.4 34.2 39.5 48.5 62 9.19411 9.87802 10.5989 11.361 12.1694 13.0299 13.9498 14.9379 16 17.1597 18.4299 19.8341 21.4 23.1788 25.232 27.6599 30.6 34.4 39.7 48.7 62 9.39204 10.076 10.7968 11.559 12.3673 13.2278 14.1477 15.1358 16.2 17.3599 18.6303 20.0347 21.6 23.3791 25.4327 27.8612 30.8 34.6 39.9 48.9 62 9.59061 10.2745 10.9954 11.7575 12.5659 13.4264 14.3463 15.3344 16.4 17.56 18.8306 20.2352 21.8 23.5793 25.6332 28.062 31.0341 34.8647 40.2 49.3 62 9.78982 10.4737 11.1946 11.9567 12.7651 13.6256 14.5455 15.5336 16.6 17.7601 19.0308 20.4355 22 23.7794 25.8334 28.2625 31.2349 35.066 40.4 49.5 62 9.98969 10.6736 11.3945 12.1566 12.9649 13.8255 14.7454 15.7335 16.8 17.9601 19.2308 20.6355 22.2 23.9794 26.0335 28.4626 31.4351 35.2662 40.6 49.7 62 10.1902 10.8741 11.595 12.3571 13.1655 14.026 14.9459 15.934 17 18.16 19.4307 20.8354 22.4 24.1794 26.2333 28.6623 31.6345 35.4654 40.8 49.9 62 10.3914 11.0753 11.7962 12.5583 13.3666 14.2271 15.1471 16.1352 17.2 18.3599 19.6305 21.035 22.6 24.3792 26.4329 28.8616 31.8334 35.6634 41 50.1 62 10.5932 11.2771 11.998 12.7601 13.5685 14.429 15.3489 16.337 17.4 18.5598 19.8301 21.2343 22.8 24.5789 26.6323 29.0605 32 35.8 41.1 50.1 62 10.7957 11.4796 12.2 12.9621 13.7704 14.6308 15.5507 16.5388 17.6 18.7595 20.0296 21.4335 23 24.7786 26.8314 29.259 32.2 36 41.3 50.3 62 10.9989 11.6828 12.4 13.1619 13.97 14.8302 15.7498 16.7375 17.8 18.9593 20.229 21.6325 23.2 24.9781 27.0304 29.4571 32.4 36.2 41.5 50.5 62 11.2028 11.8867 12.6076 13.3697 14.178 15.0385 15.9584 16.9465 18.0138 19.1739 20.4447 21.8495 23.42 25.2 27.2553 29.6861 32.6612 36.4968 41.9 51.1 62 11.4073 12.0912 12.8121 13.5742 14.3826 15.2431 16.163 17.1511 18.2183 19.3785 20.6493 22.0541 23.6245 25.4 27.4545 29.8843 32.8578 36.6907 42.0912 51.2 62 11.6125 12.2964 13.0173 13.7794 14.5878 15.4483 16.3682 17.3563 18.4235 19.5837 20.8545 22.2593 23.8297 25.6 27.6537 30.0822 33.0539 36.8838 42.2782 51.4 62 11.8184 12.5 13.2208 13.9827 14.7909 15.6512 16.5709 17.5588 18.6257 19.7855 21.0559 22.4603 24.0301 25.8 27.8527 30.2799 33.2495 37.0759 42.4 51.4 62 12.025 12.709 13.4298 14.192 15 15.8605 16.7804 17.7685 18.8357 19.9958 21.2665 22.6713 24.2417 26.022 28.0772 30.5 33.473 37.3 42.6962 51.8 62 12.2323 12.9163 13.6372 14.3993 15.2 16.06 16.9793 17.9668 19.0332 20.1925 21.4622 22.8656 24.4344 26.2 28.2504 30.6743 33.6391 37.4574 42.8 51.8 62 12.4404 13.1243 13.8452 14.6 15.4 16.2595 17.1782 18.1649 19.2306 20.3888 21.6574 23.0594 24.6264 26.4 28.449 30.8711 33.8 37.6 42.9 51.8 62 12.6491 13.333 14.0539 14.816 15.6243 16.4848 17.4 18.3877 19.4546 20.6142 21.8844 23.2885 24.858 26.6372 28.691 31.1 34.067 37.8891 43.2679 52.3 62 12.8585 13.5424 14.2633 15.0254 15.8338 16.6943 17.6142 18.6 19.667 20.827 22.0975 23.5 25.0698 26.8494 28.9 31.3287 34.3 38.1 43.4796 52.6 62 13.0687 13.7526 14.4735 15.2356 16.0439 16.9 17.8196 18.8 19.8662 21.0251 22.2945 23.6975 25.2657 27.0432 29.0947 31.5 34.4621 38.2761 43.6 52.6 62 13.2795 13.9634 14.6843 15.4464 16.2548 17.1153 18.0352 19.0233 20.0905 21.2507 22.5215 23.9263 25.4967 27.2772 29.3325 31.7635 34.7387 38.5745 43.9807 53.1 62 13.4911 14.175 14.8959 15.658 16.4664 17.3269 18.2468 19.2349 20.3 21.46 22.7305 24.135 25.7 27.4792 29.533 31.9617 34.9336 38.7638 44.1 53.2 62 13.7035 14.3874 15.1083 15.8704 16.6787 17.5392 18.4591 19.4472 20.5145 21.6746 22.9454 24.3502 25.9207 27.7 29.7552 32.1859 35.1607 38.9958 44.4 53.6 62 13.9165 14.6 15.3209 16.083 16.8913 17.7517 18.6716 19.6597 20.7268 21.8869 23.1576 24.5624 26.1327 27.9 29.953 32.3806 35.3509 39.1784 44.5682 53.7 62 14.1304 14.8143 15.5352 16.2973 17.1 17.9601 18.8796 19.8672 20.9339 22.0934 23.3634 24.7672 26.3364 28.1 30.1507 32.5751 35.5406 39.3601 44.7 53.7 62 14.3449 15.0288 15.7497 16.5118 17.3202 18.1807 19.1 20.0881 21.1552 22.3153 23.5861 24.9908 26.5611 28.3414 30.3965 32.8272 35.8 39.6 44.9863 54.1 62 14.5602 15.2441 15.965 16.7272 17.5355 18.396 19.3159 20.3 21.3669 22.5267 23.797 25.2 26.7696 28.5489 30.6 33.0283 35.9996 39.8 45.1787 54.3 62 14.7763 15.4602 16.1811 16.9432 17.7516 18.6121 19.532 20.5201 21.5873 22.7475 24.0183 25.4231 26.9935 28.7739 30.8293 33.2602 36.2355 40.0713 45.4775 54.6 62 14.9932 15.6771 16.398 17.1601 17.9684 18.8289 19.7488 20.7369 21.8 22.9598 24.2301 25.6344 27.2 28.9789 31.0323 33.4605 36.4 40.2 45.5 54.5 62 15.2108 15.8947 16.6156 17.3777 18.186 19.0465 19.9664 20.9546 22.0218 23.1819 24.4527 25.8575 27.428 29.2 31.2539 33.6829 36.6552 40.4861 45.8825 55 62 15.4292 16.1131 16.834 17.5961 18.4 19.2602 20.1798 21.1675 22.2343 23.3939 24.6641 26.0681 27.6375 29.4 31.4509 33.8756 36.8415 40.6617 46 55 62 15.6483 16.3323 17.0531 17.8153 18.6236 19.4841 20.4 21.3878 22.4547 23.6144 24.8847 26.2889 27.8585 29.638 31.692 34.1 37.0672 40.8895 46.269 55.3 62 15.8683 16.5522 17.2731 18.0352 18.8435 19.7 20.6196 21.6 22.6662 23.8252 25.0946 26.4976 28.0659 29.8435 31.8951 34.3 37.2622 41.0763 46.4 55.4 62 16.0891 16.773 17.4939 18.256 19.0643 19.9248 20.8447 21.8328 22.9 24.0601 25.3309 26.7357 28.3 30.0795 32.1337 34.563 37.5357 41.3673 46.7 55.8 62 16.3106 16.9945 17.7154 18.4775 19.2858 20.1464 21.0663 22.0544 23.1216 24.2818 25.5526 26.9574 28.5278 30.3 32.354 34.783 37.7554 41.5863 46.983 56.1 62 16.533 17.2169 17.9378 18.6999 19.5 20.36 21.2792 22.2666 23.333 24.4922 25.7618 27.1651 28.7338 30.5 32.5503 34.9741 37.9387 41.7566 47.1 56.1 62 16.7561 17.44 18.1609 18.923 19.7314 20.5919 21.5118 22.4999 23.5671 24.7273 25.9981 27.4 28.9701 30.75 32.8 35.2291 38.2 42 47.3807 56.5 62 16.9801 17.664 18.3849 19.147 19.9553 20.8159 21.7358 22.7239 23.7911 24.9513 26.2221 27.6269 29.1973 30.9777 33.0331 35.464 38.4393 42.275 47.6812 56.8 62 17.2049 17.8888 18.6097 19.3718 20.1801 21.0407 21.9606 22.9487 24.0159 25.1761 26.4469 27.8517 29.4221 31.2 33.2549 35.6853 38.6596 42.4939 47.8972 57 62 17.4305 18.1144 18.8353 19.5975 20.4 21.2601 22.1796 23.1672 24.2338 25.3933 26.6632 28.067 29.6362 31.4 33.4507 35.875 38.8405 42.6598 48 57 62 17.657 18.3409 19.0618 19.8239 20.6322 21.4928 22.4127 23.4 24.4672 25.6272 26.898 28.3 29.87 31.6498 33.7 36.129 39.1 42.9 48.2803 57.4 62 17.8843 18.5682 19.2891 20.0512 20.8595 21.7201 22.64 23.6281 24.6953 25.8555 27.1263 28.5311 30.1 31.8802 33.9353 36.3658 39.3405 43.1752 48.5794 57.7 62 18.1125 18.7964 19.5173 20.2794 21.0877 21.9482 22.8681 23.8562 24.9235 26.0836 27.3544 28.7592 30.3297 32.1 34.1537 36.5823 39.554 43.3839 48.7783 57.9 62 18.3415 19.0254 19.7463 20.5084 21.3167 22.1772 23.0971 24.0852 25.1525 26.3126 27.5834 28.9882 30.5587 32.3391 34.3944 36.8 39.7689 43.5941 48.9792 58.1 62 18.5713 19.2552 19.9761 20.7382 21.5466 22.4 23.3194 24.3 25.366 26.5246 27.7937 29.1963 30.764 32.5409 34.5916 37 39.9615 43.7743 49.1 58.1 62 18.802 19.486 20.2 20.9617 21.7696 22.6296 23.5489 24.5363 25.6 26.759 28.0283 29.4314 30.9997 32.7773 34.8289 37.2547 40.2 44 49.3 58.3 62 19.0336 19.7176 20.4385 21.2 22 22.8599 23.7791 24.7665 25.8328 26.9919 28.2614 29.6646 31.2331 33 35.0501 37.4738 40.4381 44.2557 49.6 58.6 62 19.2661 19.95 20.6709 21.433 22.2414 23.1 24.0198 25 26.0664 27.2256 28.4952 29.8986 31.4673 33.2454 35.2977 37.7 40.6628 44.4777 49.8 58.8 62 19.4995 20.1834 20.9 21.6619 22.4699 23.3301 24.2496 25.2373 26.3 27.4592 28.7289 30.1323 31.7 33.478 35.5302 37.9567 40.9 44.7 50 59 62 19.7338 20.4177 21.1386 21.9 22.7 23.5599 24.4791 25.4664 26.5328 27.6918 28.9613 30.3645 31.933 33.7 35.7501 38.1738 41.1381 44.9556 50.3 59.3 62 19.9689 20.6528 21.3737 22.1358 22.9442 23.8 24.7196 25.7 26.7662 27.9251 29.1944 30.5974 32.1655 33.943 35.9944 38.4 41.3621 45.1759 50.5 59.5 62 20.205 20.8889 21.6098 22.3719 23.1802 24.0407 24.9606 25.9487 27.016 28.1761 29.4469 30.8517 32.4222 34.2 36.2549 38.6853 41.6596 45.4938 50.897 60 62 20.442 21.1259 21.8468 22.6089 23.4172 24.2777 25.1976 26.1857 27.253 28.4131 29.6839 31.0887 32.6592 34.4396 36.4949 38.9 41.8688 45.6938 51.0785 60.2 62 20.6799 21.3638 22.0847 22.8468 23.6551 24.5156 25.4355 26.4236 27.4909 28.651 29.9218 31.3266 32.8971 34.6775 36.7328 39.1638 42.139 45.9748 51.381 60.5 62 20.9187 21.6 22.3208 23.0827 23.8909 24.7512 25.6708 26.6587 27.7256 28.8854 30.1557 31.56 33.1297 34.9 36.9526 39.3798 42.3493 46.1756 51.5 60.5 62 21.1584 21.8423 22.5632 23.3254 24.1337 24.9942 25.9141 26.9 27.9671 29.127 30.3975 31.8 33.3698 35.1494 37.2 39.6287 42.6 46.4 51.7796 60.9 62 21.3991 22.083 22.8 23.5619 24.3699 25.2302 26.1497 27.1374 28.2 29.3592 30.6289 32.0324 33.6 35.3781 37.4303 39.8569 42.8 46.6 51.9 60.9 62 21.6408 22.3247 23.0456 23.8 24.6 25.4594 26.3781 27.3648 28.4304 29.5886 30.8571 32.2591 33.8259 35.6 37.649 40.071 43 46.8 52.1 61 62 21.8834 22.5673 23.2882 24.0503 24.8586 25.7192 26.6391 27.6272 28.6944 29.8546 31.1254 32.5302 34.1 35.8803 37.9356 40.3664 43.3414 47.1767 52.5821 61.7 62 22.127 22.8109 23.5318 24.2939 25.1 25.9604 26.8801 27.868 28.935 30.0949 31.3654 32.7698 34.3397 36.1195 38.174 40.6 43.5725 47.4 52.7953 61.9 62 22.3715 23.0554 23.7763 24.5384 25.3468 26.2 27.1194 28.1 29.166 30.3246 31.5936 32.9962 34.5639 36.3408 38.3914 40.8 43.7614 47.5742 52.9 61.9 62 22.617 23.3 24.0208 24.7829 25.5912 26.4516 27.3714 28.3594 29.4265 30.5866 31.8572 33.2618 34.832 36.6 38.6529 41.0804 44.0506 47.8778 53.2669 62 22.8636 23.5475 24.2684 25.0305 25.8388 26.6993 27.6192 28.6 29.6666 30.8261 32.096 33.4997 35.0689 36.8476 38.9 41.3277 44.2979 48.1 53.4771 62 23.1111 23.795 24.5159 25.278 26.0863 26.9468 27.8667 28.8548 29.9221 31.0822 32.353 33.7578 35.3283 37.1 39.1539 41.5828 44.555 48.3857 53.7818 62 23.3596 24.0435 24.7644 25.5265 26.3348 27.1953 28.1152 29.1 30.167 31.3268 32.5972 34 35.5696 37.349 39.4 41.8284 44.7999 48.6 53.979 62 23.6091 24.293 25.0139 25.776 26.5843 27.4449 28.3648 29.3529 30.4201 31.5803 32.8511 34.2559 35.8263 37.6 39.6542 42.0836 45.0565 48.8883 54.2867 62 23.8596 24.5436 25.2645 26.0266 26.8349 27.6954 28.6153 29.6 30.667 31.8268 33.0972 34.5 36.0696 37.849 39.9 42.3284 45.2999 49.1 54.479 62 24.1112 24.7951 25.516 26.2781 27.0865 27.947 28.8669 29.855 30.9222 32.0824 33.3532 34.758 36.3284 38.1 40.1539 42.5828 45.5549 49.3855 54.7814 62 24.3638 25.0477 25.7686 26.5308 27.3391 28.1996 29.1195 30.1 31.1666 32.326 33.5959 34.9996 36.5687 38.3473 40.4 42.8276 45.7978 49.6 54.9769 62 24.6175 25.3 26.0208 26.7828 27.5911 28.4515 29.3713 30.3592 31.4263 32.5862 33.8568 35.2613 36.8314 38.6 40.6528 43.0803 46.0502 49.8772 55.2 62 24.8722 25.5561 26.277 27.0391 27.8475 28.7 29.6193 30.6 31.6659 32.8245 34.0934 35.4959 37.0635 38.8402 40.8906 43.3 46.2613 50.0737 55.4 62 25.128 25.8119 26.5328 27.2949 28.1 28.9603 29.88 30.8678 31.9347 33.0944 34.3648 35.769 37.3387 39.1 41.1511 43.5761 46.5424 50.3632 55.7 62 25.3848 26.0687 26.7896 27.5518 28.3601 29.2206 30.1405 31.1286 32.1958 33.356 34.6268 36.0316 37.6 39.3801 41.4351 43.8655 46.8399 50.6743 56.0778 62 25.6428 26.3267 27.0476 27.8097 28.618 29.4785 30.3984 31.3865 32.4538 33.6139 34.8847 36.2895 37.86 39.6404 41.6957 44.1267 47.1 50.9 56.2874 62 25.9018 26.5857 27.3 28.0617 28.8696 29.7296 30.649 31.6364 32.7 33.859 35.1284 36.5315 38.0998 39.8775 41.9292 44.355 47.3 51.1 56.4 62 26.1619 26.8458 27.5667 28.3288 29.1372 29.9977 30.9176 31.9 32.9668 34.1264 35.3965 36.8 38.3694 40.1484 42.2 44.628 47.5988 51.4 56.7779 62 26.4231 27.1071 27.8279 28.5901 29.3984 30.2589 31.1788 32.1669 33.2341 34.3943 35.6651 37.0699 38.6403 40.4208 42.4761 44.9 47.8735 51.7 57.0972 62 26.6855 27.3694 28.0903 28.8524 29.6607 30.5213 31.4412 32.4293 33.4965 34.6566 35.9275 37.3323 38.9 40.68 42.7349 45.1651 48.1393 51.9732 57.3758 62 26.949 27.6329 28.3538 29.1159 29.9242 30.7847 31.7 32.6877 33.7546 34.9142 36.1844 37.5885 39.1581 40.9373 42.9911 45.4 48.367 52.1891 57.568 62 27.2136 27.8975 28.6184 29.3805 30.1888 31.0493 31.9692 32.9574 34.0246 35.1847 36.4555 37.8604 39.4308 41.2 43.2535 45.6818 48.6531 52.4824 57.8755 62 27.4793 28.1633 28.8842 29.6463 30.4546 31.3151 32.235 33.2231 34.2904 35.4505 36.7213 38.1261 39.6966 41.477 43.5323 45.9633 48.9385 52.7743 58.1805 62 27.7463 28.4302 29.1511 29.9132 30.7215 31.582 32.5 33.488 34.555 35.715 36.9855 38.39 39.9601 41.74 43.7947 46.2 49.1677 52.9909 58.372 62 28.0144 28.6983 29.4192 30.1813 30.9896 31.8501 32.77 33.7581 34.8254 35.9855 37.2563 38.6611 40.2316 42 44.0533 46.4815 49.4526 53.2813 58.6736 62 28.2836 28.9675 29.6884 30.4505 31.2589 32.1194 33.0393 34.0274 35.0946 36.2548 37.5256 38.9304 40.5 42.2803 44.3355 46.7662 49.7411 53.5763 58.9814 62 28.5541 29.238 29.9589 30.721 31.5293 32.3898 33.3098 34.2979 35.3651 36.5252 37.796 39.2 40.7703 42.5506 44.6 47.0295 50 53.8 59.1818 62 28.8257 29.5097 30.2305 30.9927 31.8 32.6604 33.5803 34.5683 35.6354 36.7955 38.0661 39.4708 41.041 42.8211 44.8761 47.3 50.2728 54.1 59.4959 62 29.0986 29.7825 30.5 31.2619 32.07 32.9303 33.8499 34.8377 35.9 37.0593 38.329 39.7326 41.3 43.0782 45.1305 47.5572 50.5 54.3 59.6 62 29.3727 30.0566 30.7775 31.5396 32.3479 33.2 34.1193 35.1 36.1659 37.3244 38.5933 39.9957 41.5632 43.3398 45.39 47.8 50.7611 54.5734 59.9 62 29.648 30.3319 31.0528 31.8149 32.6233 33.4838 34.4 35.3878 36.4547 37.6145 38.8848 40.2891 41.8588 43.6383 45.6924 48.1 51.0673 54.8898 60.2694 62 29.9246 30.6085 31.3294 32.0915 32.8998 33.7603 34.6802 35.6684 36.7356 37.8957 39.1665 40.5713 42.1418 43.9222 45.9775 48.4 51.3731 55.2 60.5965 62 30.2024 30.8863 31.6 32.3617 33.1695 34.0295 34.9488 35.9362 37 38.1589 39.4283 40.8313 42.3995 44.1771 46.2286 48.6542 51.6 55.4 60.7 62 30.4815 31.1654 31.8863 32.6484 33.4567 34.3172 35.2371 36.2253 37.2925 38.4526 39.7234 41.1282 42.6987 44.4791 46.5344 48.9654 51.9407 55.7764 61.1826 62 30.7618 31.4457 32.1666 32.9288 33.7371 34.5976 35.5175 36.5 37.5668 38.7264 39.9965 41.4 42.9694 44.7484 46.8 49.228 52.1988 56 61.3779 62 31.0435 31.7274 32.4483 33.2104 34.0187 34.8792 35.7992 36.7873 37.8545 39.0146 40.2854 41.6903 43.2607 45.0411 47.0965 49.5274 52.5 56.3 61.687 62 31.3264 32.0103 32.7312 33.4934 34.3 35.1604 36.0802 37.0681 38.1352 39.2951 40.5657 41.9702 43.5403 45.3202 47.3749 49.8 52.7727 56.6 61.9955 62 31.6107 32.2946 33.0155 33.7776 34.5859 35.4465 36.3664 37.3545 38.4217 39.5819 40.8527 42.2575 43.8279 45.6 47.654 50.083 53.0553 56.8862 62 31.8963 32.5802 33.3 34.062 34.8703 35.7307 36.6505 37.6385 38.7 39.8595 41.1295 42.5333 44.1 45.8785 47.9313 50.3586 53.3 57.1 62 32.1832 32.8671 33.588 34.3501 35.1585 36.019 36.9389 37.927 38.9942 40.1544 41.4252 42.83 44.4 46.1804 48.2356 50.6665 53.6415 57.477 62 32.4715 33.1554 33.8763 34.6384 35.4467 36.3 37.2194 38.2 39.266 40.4246 41.6936 43.0962 44.6639 46.4408 48.4914 50.9 53.8614 57.6742 62 32.7611 33.445 34.1659 34.928 35.7364 36.5969 37.5168 38.5 39.5668 40.7265 41.9967 43.4 44.9695 46.7486 48.8 51.2281 54.1992 58 62 33.0521 33.7361 34.4569 35.2191 36.0274 36.8879 37.8 38.7875 39.854 41.0134 42.2832 43.6868 45.2557 47.0342 49.0869 51.5 54.4662 58.287 62 33.3445 34.0285 34.7494 35.5115 36.3198 37.1803 38.1 39.0881 40.1553 41.3154 42.5862 43.991 45.5614 47.3418 49.397 51.8279 54.8 58.6 62 33.6384 34.3223 35.0432 35.8 36.6 37.4596 38.3785 39.3654 40.4312 41.5897 42.8586 44.261 45.8284 47.6 49.6494 52.0719 55.0346 58.8495 62 33.9336 34.6175 35.3384 36.1 36.9 37.7599 38.6792 39.6665 40.7328 41.8919 43.1614 44.5647 46.1331 47.9 49.9501 52.3738 55.3382 59.1558 62 34.2302 34.9141 35.635 36.3971 37.2 38.0601 38.9796 39.9673 41.0339 42.1934 43.4634 44.8673 46.4365 48.2 50.2507 52.6752 55.6407 59.4603 62 34.5283 35.2122 35.9331 36.6952 37.5 38.3603 39.2799 40.2677 41.3346 42.4943 43.7646 45.1687 46.7384 48.5 50.551 52.9759 55.9421 59.7628 62 34.8279 35.5118 36.2327 36.9948 37.8 38.6603 39.58 40.5678 41.6347 42.7945 44.0648 45.4691 47.0388 48.8 50.8511 53.2761 56.2424 60.0634 62 35.1289 35.8128 36.5337 37.2958 38.1 38.9602 39.8798 40.8676 41.9344 43.094 44.3642 45.7683 47.3378 49.1 51.1509 53.5757 56.5417 60.362 62 35.4314 36.1153 36.8362 37.5983 38.4 39.2601 40.1795 41.167 42.2335 43.3929 44.6627 46.0663 47.6353 49.4 51.4505 53.8747 56.8398 60.6587 62 35.7354 36.4193 37.1402 37.9 38.7 39.5598 40.4789 41.4661 42.5322 43.6911 44.9603 46.3632 47.9313 49.7 51.7498 54.1731 57.1368 60.9534 62 36.041 36.7249 37.4458 38.2079 39.0162 39.8767 40.7966 41.7847 42.852 44 45.2696 46.6729 48.2415 50.0196 52.0717 54.4982 57.4668 61.2915 62 36.348 37.0319 37.7528 38.5149 39.3233 40.1838 41.1 42.0878 43.1547 44.3145 45.5848 46.9891 48.5588 50.3383 52.3924 54.8 57.7673 61.5898 62 36.6566 37.3405 38.0614 38.8235 39.6319 40.4924 41.4123 42.4 43.4672 44.6273 45.8981 47.3 48.87 50.6499 52.7 55.129 58.1 61.9 62 36.9668 37.6507 38.3716 39.1337 39.942 40.8 41.7197 42.7 43.7664 44.9255 46.195 47.5983 49.1668 50.9448 52.9969 55.4 58.3626 62 37.2785 37.9625 38.6833 39.4455 40.2538 41.1143 42.0342 43.0223 44.0896 45.2497 46.5205 47.9253 49.4958 51.2762 53.3315 55.7625 58.7377 62 37.5919 38.2758 38.9967 39.7588 40.5671 41.4276 42.3476 43.3357 44.4 45.5599 46.8304 48.2348 49.8 51.5791 53.6327 56.0613 59 62 37.9068 38.5908 39.3116 40.0738 40.8821 41.7426 42.6625 43.6506 44.7178 45.878 47.1488 48.5536 50.124 51.9 53.9546 56.3845 59.3582 62 38.2234 38.9073 39.6282 40.3903 41.1987 42.0592 42.9791 43.9672 45.0344 46.1946 47.4654 48.8702 50.4406 52.2211 54.2764 56.7 59.6734 62 38.5416 39.2256 39.9465 40.7086 41.5169 42.3774 43.2973 44.2854 45.3527 46.5128 47.7836 49.1884 50.7589 52.5393 54.5946 57 59.9689 62 38.8615 39.5454 40.2663 41.0285 41.8368 42.6973 43.6172 44.6 45.6668 46.8264 48.0966 49.5 51.0694 52.8485 54.9 57.3281 60.299 62 39.1831 39.867 40.5879 41.35 42.1584 43.0189 43.9388 44.9269 45.9941 47.1543 48.4251 49.8299 51.4 53.1804 55.2357 57.6665 60.6416 62 39.5064 40.1903 40.9112 41.6733 42.4816 43.3421 44.262 45.2501 46.3174 47.4775 48.7483 50.1531 51.7236 53.5 55.5547 57.9847 60.9585 62 39.8313 40.5153 41.2362 41.9983 42.8 43.6601 44.5795 45.567 46.6336 47.7929 49.0628 50.4664 52.0354 53.8 55.8505 58.2747 61.2399 62 40.1581 40.842 41.5629 42.325 43.1333 43.9938 44.9137 45.9 46.9671 48.1271 49.3976 50.8 52.3698 54.1495 56.2 58.6287 61.6 62 40.4865 41.1704 41.8913 42.6534 43.4618 44.3223 45.2422 46.2303 47.2975 48.4577 49.7285 51.1333 52.7 54.4799 56.5345 58.9645 61.9382 62 40.8168 41.5 42.2209 42.9829 43.7912 44.6517 45.5715 46.5596 47.6267 48.7868 50.0574 51.4621 53.0324 54.8 56.8529 59.2805 62 41.1488 41.8327 42.5536 43.3157 44.124 44.9845 45.9 46.8878 47.9546 49.1143 50.3845 51.7886 53.3582 55.1375 57.1914 59.6 62 41.4826 42.1665 42.8874 43.6495 44.4579 45.3184 46.2383 47.2264 48.2936 49.4538 50.7246 52.1294 53.6998 55.4802 57.5356 59.9665 62 41.8183 42.5 43.2208 43.9828 44.7909 45.6513 46.571 47.5588 48.6258 49.7857 51.0561 52.4604 54.0303 55.8 57.8527 60.2799 62 42.1558 42.8397 43.5606 44.3227 45.131 45.9916 46.9115 47.8996 48.9668 50.127 51.3978 52.8 54.3701 56.1501 58.2 60.6292 62 42.4952 43.1791 43.9 44.6621 45.4704 46.3309 47.2508 48.239 49.3 50.4596 51.7297 53.1337 54.7 56.4786 58.5316 60.9593 62 42.8365 43.5204 44.2413 45 45.8 46.6597 47.5787 48.5658 49.6319 50.7906 52.0597 53.4624 55.0303 56.8 58.8497 61.2727 62 43.1796 43.8636 44.5844 45.3466 46.1549 47.0154 47.9353 48.9234 49.9906 51.1508 52.4216 53.8264 55.3969 57.1773 59.2326 61.6636 62 43.5248 44.2087 44.9296 45.6917 46.5 47.3605 48.2804 49.2685 50.3358 51.4959 52.7667 54.1715 55.742 57.5224 59.5777 62 43.8718 44.5557 45.2766 46.0388 46.8471 47.7 48.6194 49.6 50.6659 51.8246 53.0935 54.4961 56.0637 57.8405 59.891 62 44.2209 44.9 45.6206 46.3824 47.1904 48.0506 48.97 49.9576 51.0243 52.1838 53.4537 54.8575 56.4267 58.2 60.2523 62 44.5719 45.2559 45.9767 46.7389 47.5472 48.4 49.3194 50.3 51.3659 52.5245 53.7935 55.196 56.7636 58.5404 60.5909 62 44.925 45.6089 46.3298 47.0919 47.9 48.7605 49.6804 50.6685 51.7357 52.8958 54.1666 55.5713 57.1417 58.922 60.9773 62 45.2801 45.964 46.6849 47.4471 48.2554 49.1159 50.0358 51.0239 52.0911 53.2513 54.5221 55.9269 57.4973 59.2778 61.3331 62 45.6373 46.3212 47.0421 47.8 48.6 49.4597 50.3786 51.3656 52.4316 53.5902 54.8592 56.2617 57.8294 59.6 61.6495 62 45.9966 46.6805 47.4 48.162 48.9703 49.8307 50.7505 51.7384 52.8 53.9595 55.2294 56.6332 58.2 59.9784 62 46.358 47.0419 47.7628 48.5249 49.3333 50.1938 51.1137 52.1 53.1671 54.3271 55.5976 57 58.5698 60.3495 62 46.7216 47.4 48.1206 48.8824 49.6903 50.5504 51.4698 52.4573 53.5239 54.6833 55.9531 57.3568 58.9258 60.7 62 47.0873 47.7712 48.4921 49.2542 50.0626 50.9231 51.843 52.8311 53.8983 55.0585 56.3293 57.7341 59.3 61.0798 62 47.4552 48.1391 48.86 49.6221 50.4305 51.291 52.2109 53.199 54.2662 55.4264 56.6972 58.1 59.6702 61.4503 62 47.8254 48.5093 49.2302 49.9923 50.8 51.6605 52.5803 53.5684 54.6356 55.7956 57.0663 58.471 60.0413 61.8216 62 48.1978 48.8817 49.6 50.362 51.1701 52.0304 52.9501 53.938 55 56.1594 57.4292 58.8328 60.4 62 48.5724 49.2563 49.9772 50.7394 51.5477 52.4 53.3193 54.3 55.3659 56.5244 57.7933 59.1958 60.7633 62 48.9494 49.6333 50.3542 51.1163 51.9247 52.7852 53.7 54.6877 55.7545 56.9141 58.1843 59.5883 61.1577 62 49.3287 50.0126 50.7335 51.4956 52.3 53.1602 54.0799 55.0676 56.1344 57.2941 58.5643 59.9684 61.538 62 49.7104 50.3943 51.1152 51.8773 52.6856 53.5462 54.4661 55.4542 56.5214 57.6816 58.9524 60.3572 61.9276 62 50.0945 50.7784 51.4993 52.2614 53.0697 53.9302 54.8501 55.8382 56.9 58.0597 59.3299 60.7339 62 50.481 51.1649 51.8858 52.6479 53.4562 54.3167 55.2366 56.2247 57.292 58.4521 59.7229 61.1277 62 50.8699 51.5538 52.2747 53.0368 53.8451 54.7 55.6195 56.6 57.6661 58.8249 60.0941 61.4969 62 51.2613 51.9452 52.6661 53.4282 54.2366 55.0971 56.017 57 58.0668 59.2265 60.4967 61.9 62 51.6553 52.3392 53.0601 53.8222 54.6305 55.491 56.4109 57.399 58.4663 59.6264 60.8972 62 52.0518 52.7357 53.4566 54.2187 55.027 55.8875 56.8 57.7875 58.8541 60.0135 61.2833 62 52.4508 53.1348 53.8557 54.6178 55.4261 56.2866 57.2 58.1876 59.2543 60.4137 61.6837 62 52.8525 53.5365 54.2574 55.0195 55.8278 56.6883 57.6 58.5875 59.654 60.8133 62 53.2569 53.9408 54.6617 55.4238 56.2321 57.0927 58.0126 59 60.0672 61.2273 62 53.6639 54.3478 55.0687 55.8308 56.6392 57.4997 58.4196 59.4 60.4666 61.626 62 54.0737 54.7576 55.4785 56.2406 57.0489 57.9094 58.8294 59.8175 60.8847 62 54.4862 55.1701 55.891 56.6531 57.4614 58.322 59.2419 60.23 61.2972 62 54.9015 55.5854 56.3 57.0617 57.8697 58.7297 59.6491 60.6365 61.7 62 55.3197 56 56.7207 57.4826 58.2907 59.1509 60.0705 61.0582 62 55.7407 56.4246 57.1455 57.9 58.7 59.5595 60.4781 61.4649 62 56.1646 56.8485 57.5694 58.3315 59.1399 60 60.9199 61.9 62 56.5915 57.2754 57.9963 58.7584 59.5668 60.4273 61.3472 62 57.0214 57.7 58.4206 59.1824 59.9903 60.8504 61.7699 62 57.4543 58.1382 58.8591 59.6212 60.4296 61.2901 62 57.8903 58.5742 59.2951 60.0572 60.8656 61.7261 62 58.3295 59.0134 59.7343 60.4964 61.3 62 58.7718 59.4557 60.1766 60.9387 61.747 62 59.2173 59.9 60.6208 61.3829 62 59.6661 60.35 61.0709 61.833 62 60.1182 60.8 61.5208 62 60.5736 61.2575 61.9784 62 61.0325 61.7164 62 61.4948 62 61.9607 62 7 7.1703 7.34108 7.51234 7.68408 7.8563 8.029 8.2022 8.37588 8.55006 8.72473 8.89991 9.07559 9.25177 9.42846 9.60566 9.78337 9.96161 10.1404 10.3196 10.4994 10.6798 10.8606 11.042 11.224 11.4065 11.5895 11.773 11.9572 12.1419 12.3271 12.5129 12.6993 12.8862 13.0737 13.2618 13.4504 13.6397 13.8295 14.0199 14.211 14.4026 14.5948 14.7876 14.981 15.1751 15.3697 15.565 15.7609 15.9574 16.1546 16.3524 16.5508 16.7499 16.9497 17.1501 17.3511 17.5528 17.7552 17.9582 18.1619 18.3663 18.5714 18.7772 18.9837 19.1908 19.3987 19.6073 19.8166 20.0266 20.2373 20.4487 20.6609 20.8739 21.0875 21.3 21.3019 21.5171 21.733 21.9497 22.1672 22.3854 22.6044 22.8242 23.0448 23.2662 23.4884 23.7114 23.9352 24.1599 24.3853 24.6116 24.8388 25.0668 25.2956 25.5253 25.7558 25.9873 26.2196 26.4528 26.6868 26.9218 27.1577 27.3945 27.6322 27.8708 28.1104 28.3509 28.5924 28.8348 29.0782 29.3225 29.5679 29.8142 30.0615 30.3098 30.5591 30.8095 31.0608 31.3132 31.5667 31.8212 32.0767 32.3334 32.5911 32.8499 33.1098 33.3708 33.6329 33.8962 34.1606 34.4261 34.6928 34.9606 35.2297 35.4999 35.7713 36.0439 36.3178 36.5929 36.8692 37.1467 37.4256 37.7057 37.9871 38.2697 38.5537 38.8391 39.1257 39.4137 39.7031 39.9938 40.286 40.5795 40.8744 41.1708 41.4686 41.7678 42.0686 42.3708 42.6745 42.9797 43.2865 43.5948 43.9046 44.2161 44.5291 44.8437 45.16 45.4779 45.7974 46.1187 46.4416 46.7662 47.0926 47.4207 47.7506 48.0822 48.4157 48.751 49.0881 49.4272 49.768 50.1109 50.4556 50.8 50.8023 51.1509 51.5 51.5016 51.8542 52.2089 52.5657 52.9246 53.2856 53.6487 54.014 54.3815 54.7512 55.1231 55.4973 55.8738 56.2527 56.6339 57.0175 57.4 57.4035 57.7919 58.1828 58.5763 58.9723 59.3708 59.772 60.1758 60.5823 60.9915 61.4 61.4035 61.8182 62 13.6776 14.3615 15.0824 15.8445 16.6529 17.5134 18.4333 19.4214 20.4886 21.6488 22.9196 24.3244 25.8948 27.6752 29.7306 32.1615 35.1368 38.9725 44.3787 53.5 62 13.8676 14.5515 15.2724 16.0345 16.8428 17.7 18.6197 19.6 20.6663 21.8253 23.0948 24.498 26.0664 27.8441 29.896 32.3 35.2624 39.0768 44.4 53.4 62 14.0581 14.742 15.4629 16.225 17.0333 17.8939 18.8138 19.8 20.8671 22.027 23.2976 24.7 26.2698 28.0495 30.1 32.5287 35.5 39.3 44.6798 53.8 62 14.2492 14.9331 15.654 16.4162 17.2245 18.085 19 19.9877 21.0545 22.2142 23.4843 24.8884 26.4579 28.2371 30.2908 32.7 35.667 39.4889 44.8676 53.9 62 14.441 15.1249 15.8458 16.6079 17.4162 18.2767 19.1966 20.1847 21.252 22.4121 23.6829 25.0877 26.6582 28.4386 30.4939 32.9 35.869 39.6944 45.08 54.2 62 14.6333 15.3172 16.0381 16.8 17.6 18.4599 19.3792 20.3666 21.4329 22.592 23.8616 25.2649 26.8334 28.6 30.6502 33.0739 36.0384 39.8562 45.2 54.2 62 14.8262 15.5102 16.231 16.9932 17.8 18.6604 19.5802 20.5682 21.6353 22.7952 24.0658 25.4704 27.0405 28.8205 30.8752 33.3 36.2727 40.1 45.4956 54.6 62 15.0198 15.7 16.4207 17.1826 17.9906 18.8509 19.7704 20.7582 21.8249 22.9846 24.2547 25.6587 27.2282 29 31.0524 33.4793 36.4485 40.2741 45.6 54.6 62 15.214 15.8979 16.6188 17.3809 18.1892 19.0497 19.9696 20.9577 22.025 23.1851 24.4559 25.8607 27.4312 29.2 31.2534 33.6817 36.6529 40.4819 45.8746 55 62 15.4087 16.0926 16.8135 17.5757 18.384 19.2445 20.1644 21.1525 22.2197 23.3799 24.6507 26.0555 27.6259 29.4 31.4543 33.8838 36.8568 40.6888 46.087